104
Energy = -2009.670037649
C    -0.5126495    1.1440707    0.1563715 
C    -1.2266154    1.2162942    1.3518347 
C    -0.5997452    1.3101801    2.6024059 
C    -1.2441887    1.1505359   -1.1725420 
C    -1.4728733    2.5588331   -1.6926073 
C    -2.6201206    3.2615977   -1.3017174 
C    -0.7629311    4.5251100   -2.9550343 
C    -0.5412775    3.2103005   -2.5130530 
C    -1.4452106    1.4300405    3.8749254 
H    -3.3290394    2.7448343   -0.6539909 
H    -0.7032370    0.5447417   -1.9144407 
H    -2.2244617    0.6733704   -1.0316434 
H    -2.3175969    1.2151254    1.2922015 
C    -2.8745733    4.5736307   -1.7072485 
C    -2.3459992    0.1866523    4.0145031 
H    -1.2282966    1.6371356    6.0212296 
C    -0.5803156    1.5463083    5.1374591 
H    -2.9473245    2.7963753    4.6812186 
C    -2.3276388    2.6920759    3.7774912 
H    -1.7398543   -0.7275698    4.0916872 
H    -5.2754252    4.8906655   -3.0518704 
H    -1.7068656    3.5941748    3.6771656 
H    -3.0153529    0.0745346    3.1502236 
H    -3.0005974    2.6496687    2.9095853 
H    -2.9703157    0.2645925    4.9177622 
H    -4.4858537    4.2419420    0.5889098 
C    -5.0143312    4.5429596   -0.3279209 
H    -5.3955323    3.6370311   -0.8216598 
H     0.0547135    0.6595377    5.2793976 
H     0.0674207    2.4351041    5.1057691 
O     0.6180525    2.5794016   -2.9288353 
C     0.8908971    1.1511428    0.2138485 
C     0.7969183    1.3037657    2.6137965 
C     1.5618723    1.2186804    1.4429409 
C     4.3169334    4.6566018    0.2470489 
C     4.1708741    4.7462554    2.6956787 
C     3.7667709    3.4038717    2.6786861 
C     3.6142763    2.6793766    1.4971447 
C     3.8914027    3.3211896    0.2788278 
C     3.0772452    1.2610589    1.5334859 
O     3.7475793    2.5830932   -0.8825281 
O     2.7868765    4.0912943   -2.8271116 
O     1.5831849    1.0715652   -0.9815815 
H     3.5313147    0.6556792    0.7351159 
H     3.3769827    0.8009981    2.4858348 
H     3.5440934    2.8938063    3.6189064 
H     5.0149695    4.6967705   -1.8035736 
H     1.3340065    1.3665730    3.5607836 
H     1.9465441    3.5705539   -3.0136603 
H     3.5311893    3.1984347   -1.6488133 
H     2.4778824    1.5212250   -0.8808144 
H     0.8894806    1.8935430   -2.2445201 
H     0.7869159    4.5745321   -4.4656619 
H     5.0334686    3.7469747    5.1296482 
H     2.5580831    4.4659892    4.9251042 
H    -4.3440381    6.3978651   -3.1835179 
C    -4.9337173    5.7757502   -2.4959382 
H    -3.0325791    7.2746705   -1.1331324 
H    -5.8187195    6.3548354   -2.1907526 
C    -4.1105632    5.3613788   -1.2600692 
C    -3.6550753    6.6255252   -0.5016588 
C    -1.9276181    5.1748421   -2.5481792 
H    -4.5279527    7.2099107   -0.1726488 
H    -3.0643754    6.3559503    0.3857578 
H    -5.8813657    5.1496519   -0.0289915 
H    -0.2404718    6.0064539   -4.4032351 
H    -2.0845647    6.1993695   -2.8937284 
H    -0.6609652    8.9931923   -1.0785659 
H    -0.1482647   10.3981153   -0.1160410 
H     0.2126276    8.7437659    0.4464637 
C     0.1432658    9.3879304   -0.4420330 
H     6.3085427    4.7844277    4.4555449 
C     5.3165131    4.7897995    4.9298934 
H     0.5886227    9.9724521   -3.1207954 
H     5.7117232    7.0240576    3.3692290 
H     4.0036358    7.5163087    3.2236240 
C     4.7202271    6.9534063    3.8400462 
H     4.7799100    7.4498096    4.8194265 
C     4.2830523    5.4943845    4.0284086 
H     0.0882745    7.7648425   -2.8367448 
H     3.5235632   10.1288221   -0.7412219 
H     2.2278977   11.0556888    0.0427730 
C     2.5415245   10.0441667   -0.2532371 
H     2.3080158   10.3968240   -2.9786668 
H     1.0756423   11.3634321   -2.1257638 
H     2.6612785    9.4498773    0.6647695 
C     4.4420376    5.3429953    1.4621517 
C     1.3572758   10.3433605   -2.4286722 
H     2.1517034    5.9872999    4.1033844 
C     2.9076071    5.4890951    4.7275875 
H     2.9653681    6.0186975    5.6908858 
H     5.3987500    5.3089467    5.8970395 
C     0.2755725    5.2641089   -3.7779190 
C     1.2792034    5.9955017   -2.9040379 
C     1.0109670    7.2990418   -2.4825894 
C     1.8662584    8.0154204   -1.6351847 
C     3.0360903    7.3715527   -1.2223499 
C     3.3490767    6.0636408   -1.6093178 
C     2.4583161    5.3809770   -2.4478671 
C     4.5886079    5.3842003   -1.0578915 
C     1.4913365    9.4335546   -1.1911617 
H     4.7665326    6.3832488    1.4198755 
H     5.3503685    6.1539313   -0.8688878 
H     3.7384525    7.8843057   -0.5642586 
