80
Energy = -2060.348564806
C     1.0308631    1.0791496   -0.0806628 
C    -0.3660183    1.0084693   -0.1310499 
C    -1.1047684    1.1606703    1.0501903 
C    -0.4590820    1.3961298    2.2697640 
C     0.9399185    1.4628645    2.2959456 
C     1.7004598    1.3014661    1.1382314 
C    -1.0890370    0.8699748   -1.4565799 
C    -1.3355057    2.2277597   -2.0889512 
C    -2.4637847    2.9593644   -1.6982283 
C    -2.6958560    4.2478616   -2.1885060 
C    -1.7965219    4.7918868   -3.1124294 
C    -0.6635762    4.0890021   -3.5211975 
C    -0.4305987    2.8091873   -2.9869221 
C     0.3325011    4.7398620   -4.4643974 
C     1.3713533    5.5735249   -3.7352333 
C     1.1265097    6.9383595   -3.5186684 
C     2.0462067    7.7315887   -2.8245315 
C     3.2211283    7.1438660   -2.3373086 
C     3.4840498    5.7894519   -2.5260690 
C     2.5521378    5.0093699   -3.2345874 
C     4.7154831    5.1594026   -1.9036567 
C     4.4308579    4.6130547   -0.5153590 
C     4.5377102    5.4716658    0.5872388 
C     4.2406795    5.0271414    1.8795311 
C     3.8387384    3.6986292    2.0628114 
C     3.7172194    2.8222753    0.9860613 
C     4.0098953    3.2928867   -0.3064113 
C     3.2138342    1.4082075    1.2131437 
O     3.8866374    2.4031577   -1.3636017 
O     2.8609605    3.6746087   -3.4398230 
O     0.7169917    2.1371136   -3.3827231 
O     1.7280138    0.8987237   -1.2643402 
H     3.6820715    0.7182500    0.4957005 
H     3.5305237    1.0851151    2.2144365 
H     3.6100144    3.3599574    3.0748379 
H     4.8765716    6.4920300    0.4054281 
H     5.4971829    5.9276641   -1.8207917 
H     5.1160976    4.3698844   -2.5558404 
H     3.9336046    7.7731536   -1.8002449 
H     0.2048097    7.3631038   -3.9146730 
H     0.8208228    3.9756556   -5.0868292 
H    -0.2187127    5.3987261   -5.1500016 
H    -1.9889844    5.7948195   -3.4976862 
H    -3.1595730    2.4882572   -1.0034127 
H    -0.5277546    0.2163490   -2.1391686 
H    -2.0601813    0.3851970   -1.2811197 
H    -2.1906856    1.0910782    0.9928948 
H     1.4331342    1.6391198    3.2535281 
H     2.0179194    3.1368143   -3.5560426 
H     3.6363490    2.9151200   -2.1931344 
H     2.6154239    1.3730570   -1.2162844 
H     1.0215195    1.5469842   -2.6266203 
O     1.8927778    9.0698947   -2.5757235 
O    -3.7606619    5.0346760   -1.8266098 
O    -1.0980584    1.5665040    3.4687877 
O     4.3246999    5.7976108    3.0110822 
C    -4.4681510    4.6544775   -0.6117076 
H    -5.3042895    5.3632467   -0.5785267 
H    -4.8726262    3.6375046   -0.7333899 
C     0.6701623    9.7063767   -3.0407333 
H     0.6159804    9.6036401   -4.1374902 
H    -0.1895527    9.1861809   -2.5857592 
C     4.4551232    7.2359992    2.8317911 
H     4.6442729    7.5932695    3.8514880 
H     5.3426789    7.4442315    2.2139449 
C    -2.5536614    1.5206980    3.4706409 
H    -2.9334734    2.3131908    2.8032548 
H    -2.8719138    0.5374962    3.0853779 
N     3.3207499    7.9127291    2.2870181 
H     2.4862491    7.7465693    2.8502896 
H     3.1216419    7.6223651    1.3287971 
N    -3.0695833    1.7125589    4.7798133 
H    -2.8102390    2.6258443    5.1533878 
H    -2.7346043    0.9943541    5.4225537 
N    -3.7194299    4.7326977    0.6045867 
H    -3.3723580    5.6794673    0.7624527 
H    -2.9162064    4.1011874    0.5961700 
N     0.6427022   11.0820612   -2.6864796 
H     1.4216351   11.5903271   -3.1062746 
H     0.6879359   11.2069082   -1.6746533 
