92
Energy = -2217.421239457
C    -0.4395903    1.1338151    0.1386395 
C    -1.0745103    0.9560189    1.3698416 
C    -0.3352488    0.7877189    2.5407195 
C    -1.2506819    1.4917235   -1.0883678 
C    -1.3402218    2.9982821   -1.2702246 
C    -2.2463835    3.7244767   -0.4838769 
C    -2.3350997    5.1152265   -0.5927179 
C    -0.6370926    5.0801015   -2.3328715 
C    -0.4990738    3.6938721   -2.1503074 
H    -2.8731089    3.1833472    0.2244543 
H    -0.8354540    1.0172312   -1.9887691 
H    -2.2688401    1.0962864   -0.9639355 
H    -2.1640361    0.9727240    1.4316232 
O    -0.9865407    0.6387459    3.7539244 
C    -1.0323306    1.8484980    4.5403223 
C    -2.0199829    2.8776710    3.9815514 
H    -1.7046745    3.1512374    2.9623354 
H    -3.0086070    2.3964888    3.8879522 
H    -1.3425890    1.5267325    5.5463630 
H    -0.0227557    2.2927282    4.6146603 
H    -4.5239559    4.6999020    1.1663014 
N    -2.1394789    4.1072156    4.7609553 
H    -1.2762749    4.6763552    4.6965774 
H    -2.3128467    3.9000465    5.7469202 
O     0.5035637    3.0445185   -2.8610430 
H     0.7001168    5.2146456   -4.0346757 
H     0.8111825    2.2684959   -2.3081952 
C     0.9636594    1.1062349    0.0921325 
C     1.0573698    0.7501878    2.4736236 
C     1.7272697    0.9009173    1.2538519 
C     4.4285504    4.5055255    0.3981561 
C     4.1035227    4.2982391    2.7984471 
C     3.7957566    2.9484275    2.6425953 
C     3.7442638    2.3662782    1.3737730 
C     4.0272958    3.1658138    0.2543165 
C     3.2436206    0.9416143    1.2259592 
O     3.8939595    2.5891826   -0.9996121 
O     2.8006783    4.4360779   -2.6120985 
O     1.5618430    1.2786220   -1.1431457 
H     3.6357126    0.4841586    0.3065276 
H     3.6247724    0.3438852    2.0655641 
H     3.5407821    2.3616988    3.5265644 
H     5.1243785    4.7796765   -1.6380967 
H     1.6283500    0.5947987    3.3912041 
H     1.9267376    3.9988337   -2.8378994 
H     3.6419029    3.3068211   -1.6519505 
H     2.4945124    1.6300392   -1.0392973 
C     4.4509224    5.0587844    1.6823327 
O     4.0535095    4.8690450    4.0597009 
H     1.5004233    4.3543999    3.3920326 
H     1.6127526    4.3016643    5.1548856 
C     1.5922115    4.9853736    4.2899865 
C    -3.6420165    5.3237363    1.4050333 
H    -2.8780779    4.6774405    1.8679706 
H    -5.3417819    5.3867449    3.5455943 
O    -3.1141863    5.9105608    0.2036569 
N     0.4052461    5.8380266    4.3614807 
H    -3.7785811    5.3377545    4.0977677 
H     0.3034272    6.3749198    3.4832311 
N    -4.4954429    5.9466747    3.6689295 
C    -4.0180539    6.4360913    2.3815977 
C    -1.5664806    5.7721774   -1.5595015 
H    -4.7781157    7.0892797    1.9235735 
H    -3.1252368    7.0599531    2.5531008 
C     0.3119965    5.8533428   -3.2297065 
H    -0.2359203    6.6767130   -3.7087104 
H    -1.6697194    6.8540366   -1.6600379 
H     0.3422505    8.2470523   -2.0135944 
H    -0.1148769    9.3827674   -0.2798672 
H    -0.5415421    7.1014931    1.0253133 
N     0.3077885    7.2979200    1.5625742 
H    -0.3623019    9.1574050    2.2442249 
H     0.6885746   10.6429368    0.6876017 
C     0.7039673    9.5724093    0.4351387 
C     0.5089738    8.7440677    1.7085564 
H     0.4840798    6.5081285    5.1301455 
H     1.0789992    6.8835339    1.0333821 
C     2.9205624    5.7469937    4.2278095 
H     3.1061105    6.2859595    5.1692314 
H     1.3841628    8.9060505    2.3591304 
H     2.8855642    6.4872747    3.4072935 
C     1.4303111    6.4343274   -2.3882646 
C     1.2433750    7.6792899   -1.7802674 
C     2.1655488    8.1747394   -0.8574257 
C     3.3359385    7.4555560   -0.6095754 
C     3.5589156    6.2132833   -1.2098183 
C     2.5846261    5.6956527   -2.0785782 
C     4.7572727    5.3838845   -0.7966982 
H     4.7334158    6.1047127    1.8166756 
H     5.5743469    6.0624725   -0.5141949 
H     4.0605592    7.8628038    0.0974776 
O     1.9880550    9.3644343   -0.1795669 
