56
Energy = -1778.033210715
C     0.9858157    1.1209958    0.0190098 
C    -0.4238029    1.0992213   -0.0110616 
C    -1.1278567    1.1795616    1.1937539 
C    -0.4674182    1.3048366    2.4130851 
C     0.9237070    1.3320324    2.4256306 
C     1.6718652    1.2447658    1.2458560 
C    -1.2353898    1.0618477   -1.2940339 
C    -1.4116841    2.4119090   -1.9718272 
C    -2.5934234    3.1116816   -1.7015241 
C    -2.8424723    4.3659617   -2.2500681 
C    -1.8919675    4.9324229   -3.0952345 
C    -0.6929053    4.2759545   -3.3864733 
C    -0.4588387    3.0020721   -2.8290913 
C     0.3213036    5.0168330   -4.2397876 
C     1.4026457    5.7419851   -3.4534758 
C     1.1976912    7.1021118   -3.1940796 
C     2.1127117    7.8531953   -2.4628803 
C     3.2643802    7.2333130   -1.9852855 
C     3.5073414    5.8753879   -2.2103283 
C     2.5740570    5.1296702   -2.9594840 
C     4.7418848    5.2695745   -1.5661158 
C     4.4861385    4.5729984   -0.2384748 
C     4.7148771    5.3161340    0.9254515 
C     4.4881976    4.7825132    2.1903639 
C     4.0291592    3.4722931    2.2964850 
C     3.7768433    2.6949685    1.1625511 
C     4.0187399    3.2475953   -0.1119944 
C     3.1854048    1.3132519    1.3792750 
O     3.8149609    2.4464409   -1.1979387 
O     2.8648761    3.8196391   -3.2087413 
O     0.6958411    2.3624241   -3.1753238 
O     1.6465308    0.9866953   -1.1678712 
H     3.4234441    1.0250635    2.4154274 
H     3.8563243    3.0340618    3.2819588 
H     5.0925263    6.3363790    0.8273132 
H     5.4317480    6.1024588   -1.3568070 
H     3.9984950    7.8107258   -1.4189514 
H     0.2987812    7.5792556   -3.5908658 
H    -0.2347152    5.7885262   -4.7954178 
H    -2.0761327    5.9114860   -3.5430681 
H    -3.3380951    2.6468575   -1.0514561 
H    -2.2437970    0.7123018   -1.0215143 
H    -2.2192287    1.1452877    1.1667041 
H     1.4558803    1.4112217    3.3761804 
H     2.0290224    3.3065002   -3.4242728 
H     3.6739152    2.9987783   -2.0247307 
H     2.5788109    1.3532933   -1.0975979 
H     0.9333685    1.6640080   -2.4937335 
H     4.6873675    5.3738740    3.0839107 
H    -1.0301362    1.3590965    3.3448597 
H    -3.7761253    4.8867848   -2.0383292 
H     1.9407205    8.9146718   -2.2854217 
F     3.8056877    0.3495994    0.5584457 
F     5.4254372    4.4168877   -2.4566570 
F     0.8907823    4.1736187   -5.2155783 
F    -0.7279114    0.1083762   -2.1998385 
