56
Energy = -11673.97418118
C     1.0415823    1.2167020    0.1378613 
C    -0.3635372    1.2909482    0.1731992 
C    -0.9911447    1.4850273    1.4045095 
C    -0.2448107    1.6034804    2.5750543 
C     1.1439600    1.5227132    2.5243060 
C     1.8107114    1.3159699    1.3131573 
C    -1.1228046    1.2628959   -1.1375002 
C    -1.3791938    2.6551696   -1.6797349 
C    -2.4488615    3.4394784   -1.2384215 
C    -2.6360658    4.7333202   -1.7165904 
C    -1.7442650    5.2672418   -2.6443779 
C    -0.6559612    4.5221320   -3.1004610 
C    -0.4774744    3.2174371   -2.6035449 
C     0.3984959    5.0950564   -4.0251191 
C     1.4596325    5.8714833   -3.2704328 
C     1.2754888    7.2033220   -2.8877683 
C     2.2452319    7.8803831   -2.1536830 
C     3.4186148    7.2268907   -1.7831082 
C     3.6356016    5.8936163   -2.1338144 
C     2.6431984    5.2213425   -2.8715155 
C     4.8438855    5.1095089   -1.6643736 
C     4.6477556    4.5345003   -0.2754198 
C     4.8646817    5.2911816    0.8798090 
C     4.6323424    4.7555773    2.1434946 
C     4.1692275    3.4475803    2.2695230 
C     3.9272942    2.6631009    1.1408626 
C     4.1618204    3.2209575   -0.1298944 
C     3.3234723    1.2760270    1.2219482 
O     3.8956952    2.4275444   -1.2329233 
O     2.8758205    3.8942816   -3.1905102 
O     0.6204831    2.5071095   -3.0582528 
O     1.6393789    1.0421160   -1.0987644 
H     3.6341964    0.6846075    0.3551065 
H     4.0062548    3.0134026    3.2565093 
H     5.2531327    6.3048583    0.7763362 
H     5.0665115    4.3089227   -2.3765518 
H     4.1926879    7.7569690   -1.2272453 
H     0.3675548    7.7180187   -3.2038500 
H     0.8604397    4.2901740   -4.6052443 
H    -1.8966279    6.2717993   -3.0403308 
H    -3.1588280    3.0070828   -0.5326917 
H    -0.5729228    0.6668089   -1.8723578 
H    -2.0803517    1.5249048    1.4389292 
H     1.7313345    1.5875276    3.4407828 
H     2.0025318    3.4074428   -3.2858055 
H     3.6524812    3.0050346   -2.0178740 
H     2.5602195    1.4429835   -1.0927934 
H     0.9107363    1.8445384   -2.3614785 
H     4.8227134    5.3554411    3.0335912 
H    -0.7481097    1.7487374    3.5310580 
H    -3.4854545    5.3241227   -1.3732746 
H     2.0911422    8.9238291   -1.8783131 
Br    4.1128765    0.2239321    2.7123776 
Br    6.5047464    6.1966359   -1.7711769 
Br   -0.4165355    6.1939781   -5.4672366 
Br   -2.8103217    0.2241254   -0.9798163 
