60
Energy = -1681.631557016
C     1.1060160    0.6440117   -0.1385785 
C    -0.2442794    0.3051353   -0.3275240 
C    -0.8497790   -0.4849288    0.6538732 
C    -0.1301778   -0.8942250    1.7810965 
C     1.1977657   -0.4995994    1.9644243 
C     1.8435813    0.2791875    0.9989600 
C    -1.0020503    0.8837078   -1.5043757 
C    -1.0257772    2.4007056   -1.4278357 
C    -1.4182022    3.0132626   -0.2350075 
C    -1.3971165    4.4001164   -0.0961058 
C    -0.9393309    5.1989484   -1.1408540 
C    -0.5222083    4.6300537   -2.3474756 
C    -0.6255044    3.2272788   -2.5025797 
C     0.0822504    5.5223935   -3.4157399 
C     1.2783116    6.2756448   -2.8690119 
C     1.3388560    7.6706920   -2.7927901 
C     2.4445502    8.2991314   -2.2137389 
C     3.4883828    7.5482568   -1.6636653 
C     3.4591664    6.1514043   -1.7080308 
C     2.3579687    5.5503561   -2.3404019 
C     4.4926919    5.2822991   -1.0221371 
C     3.8505816    4.4677250    0.0877193 
C     3.0463682    5.1175741    1.0273642 
C     2.3863044    4.4047674    2.0270077 
C     2.4867367    3.0167209    2.0762761 
C     3.2675429    2.3219176    1.1483230 
C     3.9963418    3.0652946    0.1898023 
C     3.2558263    0.8044564    1.1609614 
O     4.9381361    2.4013113   -0.5549038 
O     2.2667973    4.1816776   -2.3618581 
O    -0.4437021    2.7064896   -3.7588298 
O     1.7234030    1.4583411   -1.0539021 
H     3.9070197    0.4250189    0.3618790 
H     3.6677509    0.4316848    2.1113898 
H     1.9252961    2.4529276    2.8243546 
H     2.9234902    6.2003818    0.9587624 
H     5.2764587    5.9302542   -0.5994065 
H     4.9879446    4.6135840   -1.7374705 
H     4.3273305    8.0522568   -1.1788437 
H     0.5144261    8.2677150   -3.1885632 
H     0.3681952    4.9140492   -4.2844772 
H    -0.6656590    6.2492090   -3.7681514 
H    -0.8694768    6.2813357   -1.0129641 
H    -1.7274088    2.3864291    0.6038813 
H    -0.5608284    0.5647723   -2.4571536 
H    -2.0327924    0.4963236   -1.4872525 
H    -1.8988985   -0.7677762    0.5431386 
H     1.7384543   -0.7977150    2.8653027 
H    -0.6186278   -1.5112834    2.5370588 
H    -1.7173390    4.8581096    0.8412036 
H     2.4841436    9.3888080   -2.1706419 
H     1.7712796    4.9336978    2.7569623 
O     3.0615928    3.6973857   -3.5502443 
H     3.7215759    3.1389656   -3.0192484 
O     4.5004586    2.1147541   -2.0077939 
H     3.7888490    1.4217562   -1.9033839 
O     2.2246210    0.5771154   -2.1723760 
H     1.6794989    1.0143226   -2.9079557 
O     0.9223943    2.0150109   -3.9590764 
H     1.5704724    2.7748395   -3.9509451 
