60
Energy = -2973.405664376
C     0.9644300    1.0586674   -0.0741531 
C    -0.4048417    1.3926566   -0.0165908 
C    -0.8956043    1.9574717    1.1654545 
C    -0.0678651    2.1844588    2.2617275 
C     1.2800078    1.8564070    2.1739045 
C     1.8306646    1.3053361    1.0084878 
C    -1.3958430    1.2139965   -1.1579746 
C    -1.5188443    2.3791790   -2.1314398 
C    -2.7998296    2.9297539   -2.2943788 
C    -3.0507794    4.0017517   -3.1444923 
C    -1.9882030    4.5738007   -3.8404044 
C    -0.6922481    4.0737463   -3.7008200 
C    -0.4604811    2.9531764   -2.8690945 
C     0.4512704    4.7881555   -4.3876352 
C     1.3722044    5.5045103   -3.3985379 
C     0.8313778    6.6619130   -2.8213994 
C     1.5121446    7.3787426   -1.8442288 
C     2.7660350    6.9390915   -1.4282958 
C     3.3625896    5.8012928   -1.9820952 
C     2.6547942    5.0999211   -2.9805694 
C     4.7238605    5.4003033   -1.4318826 
C     4.7159779    4.4403029   -0.2492235 
C     5.3706446    4.8718764    0.9151369 
C     5.4311599    4.0985804    2.0697417 
C     4.7935110    2.8601638    2.0861610 
C     4.1151014    2.3919382    0.9594105 
C     4.1025043    3.1688051   -0.2227444 
C     3.3446922    1.0927078    1.0504174 
O     3.4799910    2.5884351   -1.2767520 
O     3.2705758    3.9870215   -3.5008684 
O     0.8180067    2.5051876   -2.8637165 
O     1.4116356    0.5079033   -1.2509352 
H     3.5596523    0.6768900    2.0446637 
H     4.8095614    2.2446254    2.9884069 
H     5.8546608    5.8513892    0.9002212 
H     5.1279163    6.3325487   -1.0121251 
H     3.3059407    7.4884141   -0.6540371 
H    -0.1625889    6.9859199   -3.1378682 
H    -0.0035103    5.5804096   -4.9985932 
H    -2.1576018    5.4297658   -4.4974873 
H    -3.6257108    2.4862909   -1.7329899 
H    -2.3750784    1.1825987   -0.6593411 
H    -1.9540627    2.2210429    1.2191088 
H     1.9417496    2.0515077    3.0207800 
H     2.7387248    3.6774558   -4.2964694 
H     3.4737452    3.1312958   -2.1111990 
H     2.3513388    0.1794689   -1.1064574 
H     0.9829638    1.7143927   -2.2819090 
H     5.9583292    4.4631570    2.9514061 
H    -0.4712664    2.6149870    3.1784505 
H    -4.0614774    4.3952432   -3.2532298 
H     1.0685514    8.2742964   -1.4087435 
S     4.0432605   -0.2396293   -0.0606893 
H     4.5810723    0.6062774   -0.9701195 
S     6.0597474    5.0539535   -2.6711451 
H     5.4176514    4.0959785   -3.3725274 
S     1.2710873    3.7402022   -5.7020363 
H     0.9588955    2.5479160   -5.1426000 
S    -1.4458056   -0.4523431   -1.9710682 
H    -0.1427439   -0.5293074   -2.3148614 
