60
Energy = -2973.266523022
C     0.8846737    0.8704231   -0.0083042 
C    -0.4463863    1.2989271   -0.1254001 
C    -0.9786440    2.0715169    0.9126045 
C    -0.2061200    2.4124274    2.0206195 
C     1.1277963    2.0153156    2.0854144 
C     1.7014070    1.2419539    1.0699525 
C    -1.2733730    1.0295341   -1.3714119 
C    -1.6737187    2.3324776   -2.0291001 
C    -2.9847360    2.8196943   -1.9819635 
C    -3.2986316    4.0715111   -2.5124200 
C    -2.2918340    4.8706122   -3.0563830 
C    -0.9663979    4.4236540   -3.1128885 
C    -0.6913361    3.1338790   -2.6322920 
C     0.1564068    5.3287809   -3.5658929 
C     1.0084307    5.7509204   -2.3808404 
C     0.4141783    6.4056557   -1.2961659 
C     1.1537213    6.7356209   -0.1623815 
C     2.4976638    6.3777364   -0.0819854 
C     3.1325698    5.7229415   -1.1430081 
C     2.3755545    5.4495769   -2.2924221 
C     4.5679652    5.2481456   -0.9913918 
C     4.6854891    4.2913266    0.1753009 
C     5.3015437    4.6539542    1.3783169 
C     5.3049383    3.7819592    2.4676494 
C     4.6498740    2.5526810    2.3788394 
C     4.0129066    2.1574792    1.1965299 
C     4.0825357    3.0258819    0.0959249 
C     3.1801531    0.8977173    1.1282613 
O     3.4532648    2.7075440   -1.1026706 
O     2.9983298    4.7694759   -3.3501981 
O     0.6068865    2.6349937   -2.6367930 
O     1.4332966    0.1176018   -1.0579203 
H     3.4661699    0.3011990    0.2524183 
H     3.3836591    0.2855842    2.0199717 
H     4.6170455    1.8862637    3.2438958 
H     5.7836940    5.6311087    1.4553957 
H     5.2325391    6.1081433   -0.8172514 
H     4.8877666    4.7556543   -1.9195645 
H     3.0648629    6.5790987    0.8292305 
H    -0.6532540    6.6318435   -1.3379055 
H     0.7749121    4.8194826   -4.3162135 
H    -0.2745121    6.2189172   -4.0487731 
H    -2.5291287    5.8673949   -3.4354355 
H    -3.7640538    2.2057232   -1.5248024 
H    -0.6889154    0.4157768   -2.0699899 
H    -2.1824969    0.4686169   -1.1057704 
H    -2.0058588    2.4326428    0.8286509 
H     1.7523212    2.3308125    2.9237295 
H    -0.6365745    3.0134996    2.8228623 
H    -4.3270680    4.4344152   -2.4838123 
H     0.6737758    7.2480443    0.6726400 
H     5.8018534    4.0692046    3.3954182 
S     3.5588467    5.7542324   -4.6140899 
H     4.7770463    6.0577137   -4.0817793 
S     4.3129022    1.6089924   -2.0914491 
H     3.3337445    0.6653552   -2.1114987 
S     1.4439023   -1.5623592   -0.8155409 
H     0.1856725   -1.8203287   -1.2735189 
S     1.1357911    2.0316888   -4.1461312 
H     2.1847383    2.8891052   -4.2643914 
