60
Energy = -2973.446202078
C    -0.3514541    1.1453523    0.1309932 
C    -0.9347953    1.2108278    1.3972958 
C    -0.1519263    1.2296899    2.5570870 
C    -1.2239018    1.1943855   -1.1099317 
C    -1.4552076    2.6092148   -1.6124460 
C    -2.5555128    3.3347599   -1.1462457 
C    -2.7897249    4.6492207   -1.5604315 
C    -1.9013140    5.2432011   -2.4639232 
C    -0.7947258    4.5480978   -2.9541416 
C    -0.5815453    3.2288127   -2.5224204 
H    -0.3569461    6.0056490   -4.4524495 
H    -2.0647006    6.2737309   -2.7868746 
H    -3.2472835    2.8497648   -0.4543084 
H    -0.7906650    0.5705256   -1.9057399 
H    -2.2003418    0.7542843   -0.8640658 
H    -2.0230136    1.2600415    1.4769541 
S    -0.9836936    1.2687345    4.1229330 
S    -4.1919003    5.5954722   -1.0278295 
H    -4.5040553    4.8185858    0.0341112 
H     0.0892496    1.6462514    4.8544231 
H     0.2608666    7.7900611   -3.0070553 
C     1.0489152    1.0992215    0.0351589 
C     1.2398363    1.1821328    2.4348468 
C     1.8594707    1.1206396    1.1831913 
C     0.1874467    5.2414180   -3.8804055 
C     1.3195336    5.9262017   -3.1336966 
C     1.1760987    7.2590602   -2.7370551 
C     2.1810260    7.9189150   -2.0236737 
C     3.3542377    7.2249005   -1.7069350 
C     3.5343246    5.8948814   -2.0899552 
C     2.5095200    5.2542786   -2.8053371 
C     4.7882943    5.1483092   -1.6731876 
C     4.6344075    4.4368057   -0.3397939 
C     4.9707721    5.1056745    0.8408469 
C     4.8173134    4.4988583    2.0908261 
C     4.3192209    3.1925483    2.1531209 
C     3.9769540    2.4923335    0.9952437 
C     4.1399680    3.1243761   -0.2482770 
C     3.3762128    1.1023891    1.0988262 
O     3.8228229    2.3991556   -1.3821583 
O     2.7243249    3.9465252   -3.1998372 
O     0.5036949    2.5507103   -3.0462905 
O     1.6018008    1.0036521   -1.2286428 
H     3.7062399    0.4801875    0.2537767 
H     3.7640346    0.6247119    2.0093157 
H     4.1821188    2.7101829    3.1234239 
H     5.3731719    6.1185317    0.7723468 
H     5.6087181    5.8736462   -1.5817624 
H     5.0861354    4.4356252   -2.4564069 
H     4.1428731    7.7237076   -1.1393347 
H     0.5887579    4.5273142   -4.6146838 
H     1.8657265    1.1791618    3.3297215 
H     1.8418546    3.4665619   -3.2817292 
H     3.5459887    3.0264595   -2.1208010 
H     2.5225144    1.4135896   -1.2291802 
H     0.8186937    1.8536627   -2.3899954 
S     5.2657333    5.2923574    3.6120327 
H     5.3200691    6.5492601    3.1161703 
S     2.0607499    9.6187938   -1.5329621 
H     0.7230117    9.7289402   -1.6972943 
