64
Energy = -1602.258806263
C     1.0983130    0.5862075   -0.1631787 
C    -0.2643287    0.3212267   -0.3926751 
C    -0.9616163   -0.3715045    0.6049023 
C    -0.3366328   -0.7355530    1.7999572 
C     0.9905640   -0.3727604    2.0374262 
C     1.7315004    0.2997694    1.0589414 
C    -0.9729576    0.9223023   -1.5882094 
C    -0.9699129    2.4429681   -1.4896859 
C    -1.2712192    3.0360552   -0.2575864 
C    -1.2488475    4.4178489   -0.0881029 
C    -0.8654817    5.2327477   -1.1484120 
C    -0.5385792    4.6827000   -2.3919267 
C    -0.6507899    3.2888248   -2.5688125 
C     0.0413860    5.5832921   -3.4701819 
C     1.2879632    6.2731398   -2.9533468 
C     1.3759979    7.6607991   -2.7940082 
C     2.5059118    8.2393766   -2.2125877 
C     3.5351798    7.4323439   -1.7220229 
C     3.4784003    6.0380612   -1.8407629 
C     2.3726984    5.4917776   -2.5180453 
C     4.4607266    5.1371444   -1.1222951 
C     3.7577228    4.3847843    0.0009902 
C     2.8779367    5.0888564    0.8321555 
C     2.1743203    4.4555318    1.8531677 
C     2.3007415    3.0805466    2.0225517 
C     3.1541580    2.3340256    1.2039049 
C     3.9236951    3.0061283    0.2327560 
C     3.1348412    0.8174755    1.3028955 
O     4.9085054    2.2538452   -0.3935777 
O     2.2589641    4.1245881   -2.6985880 
O    -0.5295544    2.8271737   -3.8727057 
O     1.8608570    1.2424819   -1.1131684 
H     3.8417830    0.4017764    0.5729676 
H     3.4675770    0.4903136    2.3001502 
H     1.6967348    2.5608820    2.7697845 
H     2.7354400    6.1570391    0.6577749 
H     5.2687629    5.7587928   -0.7042610 
H     4.9298875    4.4170787   -1.8030300 
H     4.3828279    7.8845073   -1.2016151 
H     0.5465677    8.2892976   -3.1262343 
H     0.2638215    4.9795477   -4.3596735 
H    -0.6911268    6.3481612   -3.7711794 
H    -0.7704787    6.3116164   -1.0060304 
H    -1.5132759    2.3902817    0.5886284 
H    -0.5095081    0.6191646   -2.5344280 
H    -2.0109649    0.5530239   -1.6052311 
H    -2.0209999   -0.5918643    0.4534508 
H     1.4614234   -0.6083260    2.9945786 
H    -0.8994429   -1.2721557    2.5654359 
H    -1.4968353    4.8543020    0.8805447 
H     2.5686536    9.3235716   -2.1065514 
H     1.5025567    5.0300727    2.4926188 
N     3.1204343    3.6313847   -3.7795571 
H     3.9257310    3.2301922   -3.2562763 
H     3.4485709    4.4701893   -4.2766872 
N     4.7150925    2.0898183   -1.8457828 
H     5.6214967    1.6814789   -2.1003366 
H     4.0166155    1.3253281   -1.9445054 
N     2.2529463    0.3614850   -2.2192520 
H     2.0306487   -0.5927227   -1.9055364 
H     1.5743845    0.6235196   -2.9636809 
N     0.6248946    1.9380535   -4.0960576 
H     1.4421506    2.5722716   -4.2052654 
H     0.4042771    1.5938672   -5.0373238 
