92
Energy = -2368.810100525
O     0.1998012    1.0920585    0.1963075 
C     1.0571929   -2.3208444    3.2304300 
H     0.0369715   -2.1294566    2.8984554 
H     0.6587315   -4.3362300    3.8944993 
H     1.1892026    1.2158878    0.3266747 
C    -0.4169807    0.9816391    1.4330334 
C    -1.7512219    1.4210335    1.5389681 
C    -1.6956739    0.8501839    3.8980644 
H    -2.1921363    0.8122369    4.8684828 
C     0.2765452    0.4486497    2.5343562 
C    -0.3817286    0.4101231    3.7690655 
C    -2.3751846    1.3492390    2.7868382 
H    -1.8982200    1.6705144   -0.5657828 
H    -0.2113709    2.4893161   -0.6325529 
H    -6.7811302    1.6260329    1.5861051 
N    -4.8017808    1.8207467    1.0254138 
C    -6.0543152    1.4033671    0.7988919 
C    -2.4337786    2.0409640    0.3177523 
H     0.1492114    0.0183959    4.6383923 
O    -0.2753496    3.4043345   -1.0382542 
C    -3.8652903    1.5754642    0.0927611 
H    -3.4038579    1.6980263    2.8731197 
C    -6.4479288    0.7254597   -0.3543048 
H    -7.4834431    0.4096323   -0.4848572 
C    -5.4793487    0.4691164   -1.3238433 
C    -4.1744117    0.8986874   -1.0970136 
H    -5.7354026   -0.0580939   -2.2444380 
H    -3.3925251    0.7142116   -1.8356480 
H     1.9270390   -0.2208401    1.3460101 
C     1.4068166   -3.5488264    3.7863553 
O     2.7474203    1.7977170    0.5105585 
C     1.7298319    0.0005007    2.4080255 
C     2.0374241   -1.3243934    3.1047376 
C     2.6458616    1.1505457    2.8061077 
N     3.3080725   -1.5256306    3.4870457 
C     2.9652467    1.4062302    4.1408983 
C     3.1070629    2.0464084    1.8269783 
C     3.6315928   -2.7104945    4.0218786 
H     2.6178045    0.7172931    4.9110139 
C     3.7197091    2.5222300    4.4962564 
C     3.9071246    3.1560993    2.1553004 
H     4.6778775   -2.8283926    4.3212353 
C     2.7230432   -3.7533420    4.2005285 
H     3.9506032    2.7159645    5.5443470 
H     3.0408430   -4.6967413    4.6460228 
C     4.1832453    3.3866769    3.5072510 
H     2.7087579    2.6696210    0.0105310 
H     6.4635079    2.6581802    2.2043522 
C    -2.2737206    3.5648932    0.3387211 
H    -3.9829546    3.9240471    1.5822248 
C    -1.1900021    4.1695049   -0.3269814 
C    -3.1489841    4.3874845    1.0552291 
C    -0.0356776    8.5925641   -3.8963406 
C     0.1937963    7.4302818   -3.1648591 
H     0.1297996    8.6083649   -4.9749535 
H     0.5423455    6.5222485   -3.6596574 
C    -0.9911430    5.5628031   -0.3067871 
C    -2.9654800    5.7677438    1.0882566 
H    -3.6585176    6.3947370    1.6509844 
C    -1.8935539    6.3496367    0.4135606 
H    -0.6722423   10.6657508   -3.7522563 
C    -0.4786631    9.7312107   -3.2247172 
C    -0.0231717    7.4302655   -1.7784349 
H     0.5411189    5.4328272   -1.7720685 
H    -1.7362847    7.4276198    0.4396065 
C     0.2415465    6.1507016   -0.9976549 
N    -0.4502442    8.5301810   -1.1342692 
C    -0.6691437    9.6434685   -1.8462014 
H     0.8003553    8.1519173    0.7984587 
H    -1.0157524   10.5124300   -1.2784014 
H     8.8835991    3.2800833    2.2595377 
C     6.8014416    3.6098465    1.7945271 
C     8.1488873    3.9597421    1.8240649 
H     4.3817294    3.5871874    0.1135483 
C     4.4049171    4.1177095    1.0799012 
H     1.3061795    3.9303741   -0.9465706 
C     8.5407754    5.1875203    1.2900892 
H     9.5840312    5.5055528    1.2964274 
C     5.8767146    4.5022799    1.2298323 
O     2.2702300    4.1015636   -0.7275173 
C     7.5532911    6.0019512    0.7366262 
N     6.2545304    5.6756357    0.6998536 
H     7.8139511    6.9693326    0.2955175 
H     4.7847448    4.2547459    3.7822197 
C     3.4461413    5.2963328    0.9692601 
C     2.3637290    5.2304933    0.0772588 
C     1.5410293    7.3542893    0.8528345 
C     1.4095011    6.2634072   -0.0116777 
H     2.6929615    8.2933794    2.4149676 
H     4.3870703    6.4790989    2.4978538 
C     3.5490978    6.4111785    1.8039359 
C     2.6027566    7.4310786    1.7530970 
