108
Energy = -2826.636417401
H    -1.9604892    3.3137279   -4.0517543 
H     2.0102655   -3.1934028   -3.6342542 
H     5.9542517   -2.6316334   -1.9555176 
C     6.0080779   -1.5482133   -1.8507929 
C     4.8528634   -0.7761754   -1.9105369 
C     7.2294224   -0.8904509   -1.6494701 
H     8.1618337   -1.4552926   -1.5955934 
H     3.8741595   -1.2454462   -2.0556195 
C     7.2478225    0.4891521   -1.5106687 
H     0.0233044   -4.6927145   -3.8865849 
C    -2.9085435    3.2124959   -3.5168175 
N    -2.8937987    2.4014382   -2.4457221 
H    -3.9900031    4.5594377   -4.8094744 
C    -4.0372833    3.9056022   -3.9392687 
C    -4.0206833    2.2618590   -1.7554924 
C    -5.2180632    3.7419525   -3.2024171 
H    -6.1295094    4.2682395   -3.4918029 
C    -5.2229372    2.9104230   -2.0922055 
N    -0.7849906    5.7718657   -4.6275961 
C    -2.1987353    6.5103423   -6.4380523 
H    -2.4415249    6.4701036   -7.4996135 
C    -2.9329883    7.3087491   -5.5481146 
H    -3.7716488    7.9094641   -5.9043863 
C    -1.1403527    5.7691043   -5.9257222 
C    -1.5001755    6.5298974   -3.7984221 
C    -2.5889054    7.3255452   -4.2065357 
H    -6.1121148    2.7561593   -1.4814068 
H    -0.2475765    4.7144779   -2.3665018 
H    -3.1303424    7.9191142   -3.4705012 
O    -1.1896215    6.5609343   -2.4829207 
H    -0.5363699    5.1334123   -6.5798612 
H     0.8492215    6.1064854   -2.5175346 
C     6.0180420    1.1695737   -1.5797986 
N     4.8531133    0.5629213   -1.7804784 
H     4.9546166    4.1632399   -1.9230557 
H     4.0255738    2.6449464   -1.7762054 
H     1.0394976    0.8042140    0.0061519 
C     0.8374316   -0.0303413    2.3267748 
C     0.5646938   -0.0734045    3.7000413 
H     1.3168594   -0.5025288    4.3659782 
H    -2.9743226   -0.1359102    0.0521233 
O     0.0597145    0.6187439    0.1230429 
C    -0.6327575    0.4008121    4.2268854 
H    -0.8215263    0.3474131    5.2995660 
C    -0.1486483    0.5264286    1.4874817 
C    -1.5924827    0.9296406    3.3687764 
H    -2.5366738    1.3042918    3.7700489 
C    -1.3717818    1.0114921    1.9891289 
H    -1.4716757   -5.0439093   -1.8812233 
H    -0.8979614   -3.8694264    0.2705895 
O     1.1304064   -2.3231475    0.5770596 
C    -0.5921367   -4.4011467   -1.8163275 
C    -0.2872362   -3.7621441   -0.6254495 
C     0.8554513   -2.9401060   -0.5965048 
C     0.2340851   -4.2090323   -2.9332165 
C     1.3367351   -3.3759508   -2.7916245 
H     2.1827343   -0.7750507   -0.3295519 
N     1.6558268   -2.7477217   -1.6446364 
C     2.2295200   -1.3957056    0.5710097 
H     3.1819274   -1.9472014    0.5198411 
C     2.1895366   -0.6035377    1.8826799 
H     2.4305602   -1.3367976    2.6679414 
C     3.3330378    0.4080220    1.9238890 
H     4.2776479   -0.5672166    3.5872503 
C     4.3364297    0.2694893    2.8873112 
H     8.1687641    1.0475151   -1.3443969 
O     2.4468477    1.5774862    0.0715425 
C    -0.0776438    5.7484179   -2.0443656 
H    -2.0468040    1.0083137   -0.9545947 
O    -4.0560768    1.4436649   -0.6669445 
C    -2.8034372    0.9267869   -0.1715036 
H    -3.3754523    1.5560579    1.7408292 
H    -0.2501939    7.0068085   -0.3889422 
H    -0.3990468    2.1164160   -0.2902557 
C    -2.4617226    1.6652269    1.1361340 
C    -0.0305819    5.9361086   -0.5206824 
O    -0.3970002    3.1007019   -0.5012406 
H    -3.9959510    3.5181206    2.2664277 
C    -2.2976857    3.1815381    0.9989535 
C    -3.2002367    3.9982607    1.6926870 
C    -1.2889189    3.8181338    0.2488885 
C    -3.1117580    5.3868312    1.6616671 
C    -1.1551675    5.2204106    0.2243073 
H    -3.8342379    5.9977986    2.2035301 
C    -2.0857585    5.9845012    0.9338329 
H    -1.9968050    7.0726801    0.9060780 
H     1.0058128    3.6221365   -1.0687529 
C     1.3499931    5.7701378    0.1236966 
H     0.9850302    7.4699952    1.3847800 
O     1.9905862    3.8186752   -1.1597424 
H     2.4577413    2.4366809   -0.4493367 
C     1.7049576    6.6943787    1.1143813 
C     2.2910006    4.7737613   -0.2051573 
O     6.0698966    2.5243325   -1.4394640 
C     2.9451565    6.6506316    1.7446909 
H     3.2017185    7.3881381    2.5057994 
C     3.4229214    1.4849852    1.0210304 
C     5.3958313    1.1710273    2.9662732 
C     4.4741823    2.4188279    1.0827317 
H     6.1727963    1.0455291    3.7207587 
C     5.4510846    2.2339232    2.0684081 
C     4.6032614    3.6197489    0.1452622 
H     6.2785813    2.9451180    2.1182285 
H     5.5557924    4.0878128    0.4390011 
C     3.5547440    4.7036002    0.4131893 
C     4.8242225    3.2448696   -1.3339117 
C     3.8597273    5.6657657    1.3835649 
H     4.8355223    5.6227672    1.8722906 
