108
Energy = -2826.589004313
C    -2.1873815    0.4312303    1.8336324 
C    -3.5295978    0.0392602    1.9529869 
H    -4.2764383    0.7525886    2.2993158 
C    -3.8416720   -1.2790870    1.6526447 
H    -4.8686753   -1.6321639    1.7569712 
C    -2.8264340   -2.1490021    1.2363529 
H    -3.0321509   -3.1926889    1.0004595 
C    -1.5333816   -1.6456293    1.1427427 
N    -1.2077769   -0.3758225    1.4416132 
H    -0.7053249   -2.2868337    0.8266585 
C    -4.6801279   -1.8534079    6.0777596 
N    -3.4448417   -1.7366228    5.5631622 
H    -5.2623375   -0.9293093    6.0934676 
C    -2.6700818   -2.8163231    5.5502145 
H    -1.6925909   -0.7499084    4.5037202 
C    -3.0761213   -4.0700380    6.0420109 
H    -2.3879343   -4.9142300    6.0052936 
C    -5.1886839   -3.0471915    6.5810079 
H    -6.1960149   -3.0877398    6.9945021 
C    -4.3605589   -4.1764039    6.5581863 
H    -4.7132345   -5.1322639    6.9498062 
O    -1.4164954   -2.7558276    5.0216799 
C    -0.8864950   -1.4745891    4.6345976 
H    -3.3263223   -2.1457426    8.4750608 
O    -1.9031799    1.7378112    2.1410031 
H    -6.1493804    0.7989842    7.9483790 
H    -7.2505254    1.8201133    9.9644051 
C    -6.3877013    1.1636804   10.0751084 
C    -5.7861540    0.5913505    8.9592832 
N    -4.7119243   -0.2141531    9.0297948 
C    -2.5303856   -1.7726997    9.1291377 
C    -4.2042909   -0.4655918   10.2321795 
H    -1.8651131   -2.5736351    9.4829148 
C    -5.8447178    0.8767621   11.3347747 
H    -0.3527951   -1.6770361    3.6994057 
O    -0.0230316   -0.9601361    5.6198513 
H    -0.5083895   -2.6552135    7.5205137 
O    -1.8301944   -0.8109795    8.3831188 
O    -3.0950955   -1.2508163   10.3450220 
C    -0.6057923   -0.4040368    8.9087149 
H     2.7839530   -0.2892288    2.9131627 
H     4.1665801   -1.7932774    4.0088160 
H     4.0489477    0.9608877    4.9181084 
H     1.0284243   -0.3439166    3.1025290 
C     1.9705365   -0.2220975    3.6516338 
C     2.1829308   -1.3086281    4.6881979 
C     3.4081465   -1.9833064    4.7720623 
C     3.6759298   -2.8679217    5.8166199 
H     4.6326729   -3.3906783    5.8587273 
C     1.2178329   -1.5811184    5.6741886 
C     2.7299932   -3.0560845    6.8243196 
H     2.9494872   -3.7165139    7.6664995 
C     1.4907746   -2.4072444    6.7757723 
H     0.7590588   -3.3573122    8.5491289 
C     0.5007709   -2.4939100    7.9159236 
C     1.9956284    1.1490019    4.3043215 
C     0.5306527   -1.2143107    8.7389696 
C     1.7433283   -0.7671491    9.2770625 
H     2.6384973   -1.3763912    9.1362755 
H    -0.4960127    3.1391533    2.4603803 
C    -0.5634119    2.0399032    2.4633062 
H    -6.3540295    3.5737833    2.3226090 
H    -8.0162878    2.0156000    3.4200448 
C    -7.0014545    2.1211848    3.8024151 
H    -7.2716821    0.7112874    5.4162918 
C    -6.5839859    1.3990672    4.9128301 
N    -5.3481025    1.4763178    5.4413247 
H    -2.9067204    0.5161041    6.1709343 
C    -6.0754376    2.9862736    3.1991443 
C    -4.4775484    2.2996749    4.8496082 
H    -0.2690971    5.0128679    4.8017674 
H    -4.0330090    3.7232243    3.2788681 
C    -4.7963834    3.0836391    3.7197519 
O    -3.2238629    2.4094806    5.3198129 
O    -0.3230000    1.5175118    3.7658422 
H     0.1331111    1.5925486    1.7351746 
H    -1.2419510    3.5245074    4.6926668 
C    -2.8352508    1.5738662    6.4503092 
H    -3.5029542    1.8067987    7.2932808 
C    -0.4168101    4.0076446    5.2269257 
O    -1.4978601    1.8576677    6.7236656 
C    -1.2631752    3.0455985    7.4081661 
H    -2.5938021    1.2893209    9.1540186 
C    -1.7176978    1.8004827    9.5658680 
H    -1.9521842    2.0570570   10.6103073 
H    -4.2670848   -0.1974342   12.3807105 
C    -4.7338453    0.0506173   11.4277909 
H    -6.2847116    1.3022501   12.2383502 
C    -0.7712601    4.1469771    6.6906937 
C    -1.4194374    3.0728869    8.8041247 
H     4.1100505    3.1587405    6.0833901 
H     2.0434520    4.5339448    6.2333407 
C    -1.1767964    4.2816821    9.4681276 
H    -1.3051228    4.3231234   10.5523193 
C    -0.5274066    0.8580346    9.5210244 
C     3.1929096    2.8221092    5.5975755 
C    -0.5358189    5.3355124    7.3932138 
C    -0.7590166    5.4135475    8.7679615 
H    -0.1695867    6.2082214    6.8473840 
C     2.0391640    3.6000932    5.6669475 
H    -0.5818453    6.3504397    9.2984425 
C     0.8525741    1.9653572    4.3562384 
C     0.8503973    3.1862012    5.0560160 
C     3.1619346    1.5980970    4.9339172 
C     1.8318634    0.4554691    9.9381475 
H     2.7867230    0.7879734   10.3481232 
C     0.7061784    1.2698519   10.0359454 
H     0.7814560    2.2561423   10.4991388 
