108
Energy = -2826.639382105
H     6.2675206    0.6524400   -3.3324773 
H     6.7956300    1.8441118   -5.4703657 
C     6.8525642    2.3669916   -4.5160776 
C     6.5592559    1.7066215   -3.3289596 
H    -3.0381902    9.6930647   -5.1881862 
C    -2.1324351    9.6961242   -4.5794186 
H    -1.6788355   11.8029128   -4.9037268 
H    -2.2629629    7.5945761   -4.0333577 
C    -1.3818880   10.8706726   -4.4238897 
C    -1.7165132    8.5336413   -3.9505008 
C    -0.2397439   10.8139426   -3.6344077 
C    -0.5416947    8.5935928   -3.1765447 
H     0.3783824   11.7036880   -3.4824571 
O    -0.1546393    7.4446857   -2.5712790 
H     1.9137920    7.6658666   -2.3879095 
N     0.1854692    9.6971453   -3.0153518 
H     1.1087690    5.4071175   -1.8340861 
C     1.0279325    7.5045390   -1.7544263 
H     7.5427993    5.3938246   -3.0934735 
H     7.4516437    4.2799594   -5.3489881 
C     7.2698094    4.3451674   -3.2074598 
C     7.2152505    3.7193969   -4.4429814 
H    -3.7409648    1.5161812    1.1445446 
H     1.2956796    1.2115141    0.5584023 
O     0.2951917    1.3001590    0.6249344 
C    -0.0656494    1.3976999    1.9582945 
C     0.7148183    0.7826468    2.9559072 
C     1.9790245    0.0037270    2.6010678 
H     1.8956061   -0.3437739    1.5605014 
C     3.2117986    0.8981853    2.6993854 
C     2.0888965   -1.2686676    3.4372213 
C     3.9179806    1.0555011    3.8941026 
C     3.6237666    1.6469250    1.5829942 
O     3.1953483   -2.0171497    2.9040905 
H     2.2582833   -1.0793571    4.5055441 
H     1.1630318   -1.8592021    3.3577358 
C     3.5934392   -3.1070199    3.6045049 
N     2.9432672   -3.4455362    4.7157229 
H     3.6217464    0.4830782    4.7740777 
O     2.9191895    1.4671211    0.4072366 
H     2.8217269   -4.7862532    6.2870976 
C     3.3760113   -4.5340179    5.3782878 
H     2.9888795    2.2888846   -0.1675504 
C     0.3133570    0.9384848    4.2876092 
H     0.9115616    0.4940703    5.0840156 
C     4.6954037   -3.8179521    3.0920026 
C    -1.2338821    2.1233546    2.2634299 
C    -0.8329413    1.6579806    4.6150655 
H    -1.1285158    1.7678350    5.6590911 
C    -1.5977892    2.2453783    3.6090840 
C     4.4505711   -5.3117969    4.9644594 
H     5.1811276   -3.4782877    2.1776520 
H    -1.7473645    2.2804019    0.2098307 
H    -2.4872005    2.8169329    3.8656318 
N     6.6049286    2.2936500   -2.1194371 
H     4.7570747   -6.1852393    5.5394660 
C     5.1207495   -4.9360887    3.7911457 
H     5.9717208   -5.5152461    3.4286198 
H     7.0755823    2.4608024    0.2686197 
H    -8.0072586    1.7156695    0.8403898 
C    -7.4882094    2.2577791    1.6361957 
N    -6.1562451    2.3764810    1.4865129 
C    -3.5233781    2.5948532    1.1613643 
H    -9.2718877    2.6508784    2.7872049 
C    -8.1917800    2.7764848    2.7167194 
C    -7.4692954    3.4610788    3.7042194 
C    -5.4902409    3.0295605    2.4350291 
H    -7.9787491    3.8855140    4.5709126 
C    -6.0962073    3.5962412    3.5724598 
H    -3.9711428    3.0416455    0.2607327 
O    -4.1455082    3.1741027    2.3265091 
H    -5.4885254    4.1186201    4.3112632 
H     1.7038075    3.7607927   -0.9941387 
C     4.9912095    1.9392906    3.9845304 
H     5.5275243    2.0545603    4.9269916 
C    -2.0078474    2.8101823    1.1398845 
H    -2.9068231    5.0858712    2.4220119 
H    -2.1239436    7.4217637    2.1324720 
C    -2.1110603    5.3071063    1.7136498 
C    -1.6694696    6.6184003    1.5514486 
H     0.9578407    8.3641013   -1.0746424 
C     1.1295165    6.1624722   -1.0342503 
C     4.7113375    2.5398425    1.6423737 
H     0.0339931    2.7022233   -0.2253108 
O     0.0857748    3.5886768   -0.6952687 
C     2.4569394    6.0424854   -0.2902624 
C     2.9806629    7.1193861    0.4345419 
H     2.4317428    8.0612737    0.4680937 
O     2.7081912    3.7255656   -0.9647819 
C     5.3747652    2.6777372    2.8671728 
H     4.8182008    2.7907137   -0.4783157 
C    -1.5549059    4.2591636    0.9690099 
H    -0.3059669    7.9322542    0.5330123 
C    -0.0463362    5.8885660   -0.1000719 
C    -0.6462960    6.9024156    0.6496232 
C    -0.5130755    4.5735154    0.0728151 
C     5.1155235    3.3528944    0.4174864 
C     4.4026502    4.7001838    0.3969650 
C     4.8935346    5.8084995    1.0908188 
C     3.1798777    4.8340039   -0.2847383 
C     4.1907112    7.0111445    1.1165485 
H     4.5843938    7.8645790    1.6695622 
H     5.8388863    5.7293687    1.6294059 
H     6.2075498    3.3767276    2.9529113 
C     6.9537802    3.5773844   -2.0710469 
C     6.6403353    3.4692114    0.2982735 
O     7.0260714    4.2119021   -0.8727501 
H     7.0880670    4.0326843    1.1253711 
