108
Energy = -2826.682244827
O     0.1015443    0.8866709    0.1334965 
C    -0.3077952    1.0834014    1.4428944 
C    -1.6065710    1.5793499    1.6505161 
C    -2.5306244    1.8963820    0.4872094 
H    -2.2835013    1.2665876   -0.3801351 
H    -0.4206067    2.2198419   -0.7596696 
H    -3.5588551    1.6397708    0.7783806 
O    -0.4907124    3.1037171   -1.2282515 
H     1.0876060    1.0599762    0.1039734 
H     1.9982690   -0.3287683    1.3581302 
C     3.2436953    2.1502837    1.2843844 
O     2.5877629    1.8580436    0.1076551 
C     4.1181691    3.2466573    1.3857387 
H     2.5432458    2.6536286   -0.5011782 
H     4.3759325    3.7092706   -0.7187766 
C     1.9456753    0.2237474    2.3077592 
C     4.2933090    4.2312840    0.2459207 
H     5.2420282    4.7655850    0.3957550 
O     2.0307799    3.9537083   -1.4504386 
H     1.0695813    3.6938499   -1.5581003 
C    -2.4947206    3.3672599    0.1202951 
C    -1.4604650    3.9055552   -0.6656511 
C    -3.4599110    4.2439229    0.6243594 
C    -3.4212603    5.6173324    0.3674645 
C    -2.3728175    6.1175814   -0.4102095 
C    -1.3784135    5.2839897   -0.9216688 
H    -2.3153945    7.1927671   -0.5868849 
H    -5.4331721    6.0538634    1.0122217 
H    -4.2670686    3.8367707    1.2395120 
C    -4.4489840    6.5378064    0.9635760 
H    -0.4432775    6.8704158   -1.9974484 
C    -0.1741001    5.8716545   -1.6257418 
H     0.1028700    5.2737016   -2.5064056 
H     0.2072311    7.7782112    0.2559876 
C     1.0458462    7.0776179    0.2282599 
C     3.1673615    5.2499085    0.2009514 
C     2.0591381    5.0829768   -0.6473661 
C     1.0099954    6.0170968   -0.6829733 
C     3.1705140    6.3388080    1.0721994 
C     2.1052748    7.2430594    1.1214332 
H     4.0069546    6.4584906    1.7655257 
H     1.3227303    9.0838123    1.9539415 
C     0.1197344    1.1182955    3.8066473 
C    -2.0040662    1.8549646    2.9584553 
C    -1.1443087    1.6599609    4.0437268 
H    -2.9973329    2.2771643    3.1311841 
C    -1.5454611    2.1099353    5.4153438 
H    -2.5854010    1.8456786    5.6614691 
H    -0.8925482    1.6914990    6.1944308 
C     0.5539148    0.7996380    2.5157718 
O    -1.4220861    3.5596175    5.4184889 
N    -2.1120877    3.5259229    7.6376828 
H    -2.6996408    3.6430650    9.6187046 
C     3.0101784    1.2979269    2.3758351 
H     0.8009523    0.9602231    4.6468009 
C     4.7711346    3.4546681    2.6041207 
H     2.1392157   -0.5066035    3.1060843 
C     3.6965476    1.5358694    3.5664852 
H     3.5151679    0.8922899    4.4286908 
C     4.5793697    2.6113498    3.7021587 
C     5.2576520    2.8943105    5.0130736 
H     5.3329792    1.9882352    5.6278575 
H     6.2559961    3.3236534    4.8578065 
O     4.5615818    3.9302557    5.7672282 
H     5.4503615    4.3066910    2.6956279 
N     3.1695667    2.2722843    6.6286219 
H     1.8683744    0.8971551    7.4649826 
C     2.0919529    1.9649410    7.3739322 
H    -4.5220664    7.4745183    0.3961707 
C    -2.3930702    4.2320474    8.7490684 
C    -1.7344864    4.2105740    6.5581815 
C    -2.3111360    5.6176755    8.8275685 
H    -2.5512486    6.1354622    9.7558762 
H    -3.3309888    7.3554412    4.7305893 
C    -1.6285493    5.6160086    6.5188781 
O    -4.1577850    6.8429647    2.3593107 
C    -2.8876225    7.9933129    3.9664287 
H    -1.6417742    9.1407008    5.2969042 
C    -1.9227466    6.3185468    7.6752348 
H    -1.8510053    7.4079726    7.6837798 
H    -1.3226087    6.1069797    5.5960319 
N    -2.7571646    8.5522322    1.6211601 
H    -1.4870235   10.1000506    1.0971012 
C    -1.8677538    9.5113064    1.9378818 
C    -3.2489257    7.8156384    2.6156884 
C    -1.4330549    9.7664040    3.2318555 
H    -0.6905477   10.5380003    3.4297006 
C    -1.9624938    8.9805967    4.2657734 
H     1.0916281    6.6121350    5.6777146 
H     0.8567936    7.9276235    7.8094800 
H     0.4108588    2.6082246    8.5682160 
C     1.1238047    8.4264735    6.8756964 
C     3.4796872    3.5606037    6.4958174 
C     2.0647827    8.3042948    2.1782620 
C     1.2490611    7.6893614    5.7103141 
C     1.2884536    2.9098521    7.9984234 
C     1.3420027    9.8125474    6.8413430 
H     1.2536110   10.4258608    7.7377599 
O     1.6886783    7.6301741    3.4115383 
C     1.5934727    8.3789915    4.5297268 
H     3.0401334    8.7922607    2.3274315 
N     1.8155251    9.6921758    4.4765307 
H     1.8761661   11.4615696    5.5485065 
C     1.6881102   10.3862996    5.6232073 
H     1.0212775    5.0382231    8.3124928 
C     2.7424974    4.6027891    7.0932926 
C     1.6309215    4.2613779    7.8469661 
H     3.0531163    5.6364581    6.9436461 
