59
Energy = -1569.772050979
C     0.9509744    1.0874277    0.0440203 
C    -0.4535411    1.1159467    0.0587501 
C    -1.1005301    1.1956687    1.2950221 
C    -0.3767419    1.2554331    2.4852721 
C     1.0158871    1.2319535    2.4421387 
C     1.7065803    1.1433180    1.2284376 
C    -1.2532869    1.1250024   -1.2312656 
C    -1.4816872    2.5241088   -1.7772196 
C    -2.6072403    3.2547293   -1.3792826 
C    -2.8326632    4.5504059   -1.8396715 
C    -1.9159299    5.1369271   -2.7111946 
C    -0.7724435    4.4494128   -3.1283963 
C    -0.5719985    3.1413533   -2.6543797 
C     0.2546102    5.1308946   -4.0141352 
C     1.3339174    5.8493105   -3.2216508 
C     1.1471579    7.1817233   -2.8355042 
C     2.1056941    7.8616085   -2.0866869 
C     3.2739803    7.2016582   -1.7080988 
C     3.4992377    5.8679198   -2.0609298 
C     2.5193533    5.2067582   -2.8208074 
C     4.7391145    5.1424836   -1.5708331 
C     4.5333640    4.4625863   -0.2278121 
C     4.7988928    5.1580960    0.9570802 
C     4.5947606    4.5711609    2.2043159 
C     4.1090548    3.2662390    2.2765584 
C     3.8210828    2.5362938    1.1200991 
C     4.0437900    3.1487567   -0.1244478 
C     3.2259442    1.1433333    1.2170934 
O     3.7795715    2.4006381   -1.2555414 
O     2.7676625    3.8950564   -3.1739197 
O     0.5530864    2.4731653   -3.0938324 
O     1.5700102    0.9832398   -1.1867061 
H     3.6049977    0.5073804    0.4031578 
H     3.5716940    0.6876427    2.1557473 
H     3.9431157    2.7981487    3.2493943 
H     5.1826333    6.1786727    0.8913251 
H     5.5464790    5.8798192   -1.4582859 
H     5.0814556    4.4166602   -2.3233698 
H     4.0301120    7.7248766   -1.1186529 
H     0.2293475    7.6914236   -3.1364442 
H     0.7036838    4.4059719   -4.7091868 
H    -0.2653036    5.8760214   -4.6327289 
H    -2.0806168    6.1540138   -3.0732765 
H    -3.3212045    2.7870174   -0.6977463 
H    -0.7678803    0.4905135   -1.9877473 
H    -2.2356314    0.6749316   -1.0297076 
H    -2.1924349    1.2142245    1.3179545 
H     1.5904150    1.2742125    3.3701596 
H     1.8952388    3.4043447   -3.2885216 
H     3.5407163    3.0102474   -2.0203517 
H     2.4839518    1.4062386   -1.1445668 
H     0.8398802    1.7971617   -2.4023003 
H    -0.8959978    1.3132058    3.4425142 
H    -3.7191298    5.1003648   -1.5224994 
H     1.9437998    8.9016001   -1.8019157 
H     4.8190207    5.1259771    3.1160045 
C     0.3506842    5.3036460    0.2086198 
O     0.9989629    4.3634499   -0.0481103 
O    -0.2952764    6.2420236    0.4788567 
