107
Energy = -2198.164408248
C    -0.5057976    0.9121374   -0.0733950 
C    -1.2335395    0.9040629    1.1218425 
C    -0.6156893    0.9129144    2.3755740 
C    -1.2327963    1.0231789   -1.3999214 
C    -1.4900929    2.4702931   -1.7797746 
C    -2.6381590    3.1152636   -1.3008329 
C    -2.9088479    4.4613379   -1.5582775 
C    -0.8180167    4.5640222   -2.8378240 
C    -0.5731481    3.2151262   -2.5338247 
C    -1.3979853    0.9635049    3.6923852 
H    -3.3324468    2.5258546   -0.7011227 
H    -0.6753210    0.5039177   -2.1928475 
H    -2.2023507    0.5126730   -1.3101598 
H    -2.3216134    0.9098723    1.0501410 
H    -1.5430970    2.2931833    5.4199314 
H    -1.6105055   -0.2499602    5.4958423 
H    -3.4327246    1.0473322    4.4327930 
C    -0.9932590    2.2345144    4.4682322 
H    -4.4577945    3.8799524    0.7292720 
O     0.8024334    4.1183658    0.2270606 
C     0.1848152    4.6845010    1.0408884 
O    -0.4330295    5.2541192    1.8594173 
H    -1.2162351    3.1390897    3.8839607 
C    -2.9151110    1.0042247    3.4636478 
H    -3.2153438    1.8911522    2.8859321 
H    -3.2722636    0.1086961    2.9341721 
H    -5.4024513    3.4188760   -0.7121395 
C    -5.0120218    4.2711879   -0.1368984 
C    -1.0660649   -0.2808353    4.5396733 
H    -1.3510953   -1.2013300    4.0098779 
H     0.0811855    2.2426246    4.6989485 
H     0.0078295   -0.3407873    4.7648282 
C     0.8931603    0.9234196   -0.0084322 
C     0.7852851    0.8942121    2.3927758 
C     1.5575682    0.8949200    1.2296429 
C     4.2370150    4.4845220    0.3894626 
C     3.9725874    4.3647896    2.8266832 
C     3.6373144    3.0114318    2.6796456 
C     3.5667570    2.3845118    1.4360800 
C     3.8558457    3.1397706    0.2880028 
C     3.0711772    0.9545648    1.3331045 
O     3.7461371    2.5120510   -0.9398306 
O     2.7536582    4.2008130   -2.7468743 
O     0.6015883    2.6540546   -3.0005102 
O     1.5957435    0.9662967   -1.1990508 
H     3.5428086    0.4391956    0.4840630 
H     3.3765904    0.4131583    2.2398122 
H     3.3956954    2.4158415    3.5630943 
H     4.9530274    4.7394743   -1.6424534 
H     1.3123060    0.8871789    3.3497778 
H     1.9269367    3.6818760   -2.9844357 
H     3.5200578    3.1931822   -1.6427908 
H     2.4785228    1.4222226   -1.0492370 
H     0.8838913    1.9111199   -2.3857634 
H     0.7404297    4.7975918   -4.3233077 
H     4.7180573    3.2174347    5.2351994 
C     4.9622085    4.2842139    5.1352750 
H     5.9841129    4.3597619    4.7362231 
H     2.2300433    3.8429901    4.9079430 
H    -5.8732683    4.8370531    0.2466286 
C    -4.1373390    5.1888857   -1.0019260 
H    -5.3458233    4.8972445   -2.8031455 
H    -3.0514553    6.0181828    0.7112347 
C    -1.9829517    5.1552027   -2.3500886 
C    -3.6680102    6.3712096   -0.1281115 
H    -4.5349690    6.9111773    0.2822191 
C    -4.9936398    5.7225118   -2.1674068 
H    -5.8727674    6.2611151   -1.7818759 
H    -3.0680502    7.0881411   -0.7064099 
H    -4.4241930    6.4162493   -2.8014740 
H    -2.1549185    6.2082271   -2.5849201 
H    -0.3151834    6.1964434   -4.1224214 
H    -0.8854434    9.0110713   -0.6093810 
H     4.9507417    4.7288482    6.1421170 
C     3.9606229    5.0108958    4.2161061 
C     4.2803684    5.0703551    1.6612971 
H    -0.3157919   10.6606098   -0.2835137 
H     5.3515293    6.6493101    3.7703572 
H    -0.0935761    7.7324806   -2.3002593 
H    -0.0888752    9.9553905   -1.8971456 
C    -0.0801372    9.7304006   -0.8205189 
H     0.4613155    8.1779932    1.3920067 
H     0.9432067    9.8686252    1.6923759 
C     1.2149397    8.9446347    1.1594572 
H     2.1798482    8.5980149    1.5557538 
H     1.8045920    5.4010207    4.1705205 
C     2.5410590    4.8924555    4.8098384 
H     2.5045302    5.3504917    5.8100109 
H     3.6327626    7.0750737    3.5497921 
C     4.3369875    6.4980235    4.1675006 
H     4.3101397    6.9183075    5.1831941 
C     0.2098419    5.4017777   -3.5733810 
H     2.4135407   10.4873721   -1.7264177 
H     2.0909738   11.2195274   -0.1326187 
H     3.3438610    9.9696723   -0.3039726 
C     2.3480373   10.2816330   -0.6481962 
C     1.1877174    6.0525598   -2.6114500 
C     0.8520870    7.2731010   -2.0109849 
C     1.6701567    7.8985272   -1.0674211 
C     2.8804947    7.2633974   -0.7556838 
C     3.2539193    6.0413497   -1.3134682 
C     2.3862045    5.4319540   -2.2341371 
C     4.5103769    5.3398348   -0.8346510 
C     1.2855795    9.2024891   -0.3607153 
H     4.5609582    6.1223554    1.7207803 
H     5.2546061    6.1022775   -0.5638576 
H     3.5579724    7.7184849   -0.0293478 
