59
Energy = -3407.211227796
C     0.9412444    0.8754083    0.0754270 
C    -0.4410985    1.1524023    0.0210148 
C    -1.0605260    1.6368040    1.1763265 
C    -0.3278029    1.8465807    2.3458568 
C     1.0499483    1.6291930    2.3590391 
C     1.7102528    1.1470277    1.2264802 
C    -1.2253552    1.0034553   -1.2687568 
C    -1.6201197    2.3567709   -1.8223071 
C    -2.9107191    2.8701265   -1.6646092 
C    -3.2391276    4.1371898   -2.1501209 
C    -2.2780040    4.9221200   -2.7898036 
C    -0.9746291    4.4502432   -2.9704560 
C    -0.6683267    3.1652904   -2.4771296 
C     0.0982087    5.2962681   -3.6238128 
C     1.0225833    5.9000900   -2.5838278 
C     0.5537390    6.8731216   -1.6969632 
C     1.3776974    7.3791360   -0.6901454 
C     2.6671775    6.8753759   -0.5195907 
C     3.1759190    5.9013955   -1.3819058 
C     2.3524170    5.4526596   -2.4356968 
C     4.5433154    5.2928730   -1.1368193 
C     4.5426112    4.4452300    0.1185598 
C     5.0619753    4.9195265    1.3264897 
C     5.0132264    4.1358449    2.4812056 
C     4.4294527    2.8676775    2.4521240 
C     3.8975391    2.3529260    1.2664014 
C     3.9649557    3.1597289    0.1127988 
C     3.2196581    0.9991611    1.2185760 
O     3.3593098    2.7172020   -1.0341578 
O     2.8288628    4.4888055   -3.2882194 
O     0.6268187    2.7222965   -2.5567542 
O     1.5714886    0.4110628   -1.0515360 
H     3.5296730    0.4541069    0.3182171 
H     3.5344479    0.4163416    2.0966434 
H     4.3941952    2.2623642    3.3605680 
H     5.5188670    5.9110194    1.3589067 
H     5.2852373    6.0962658   -1.0189372 
H     4.8338932    4.6842703   -2.0022399 
H     3.2851059    7.2296680    0.3081147 
H    -0.4748623    7.2283933   -1.7883140 
H     0.6833525    4.6871996   -4.3241453 
H    -0.3870226    6.1019020   -4.1940161 
H    -2.5433015    5.9137936   -3.1622149 
H    -3.6681947    2.2653325   -1.1616580 
H    -0.6207237    0.4577570   -2.0038950 
H    -2.1384242    0.4211753   -1.0769866 
H    -2.1280053    1.8657891    1.1543737 
H     1.6281830    1.8546805    3.2574710 
H    -0.8310416    2.2082585    3.2441335 
H    -4.2538862    4.5182358   -2.0259175 
H     1.0011974    8.1518856   -0.0177789 
H     5.4362936    4.5162484    3.4123786 
Cl    3.6220858    5.2023042   -4.7217117 
Cl    4.4731028    1.8012432   -2.0766952 
Cl    1.5934480   -1.3746351   -1.1132752 
Cl    0.9360990    1.8078436   -4.0492338 
C    -0.1686997    4.7120930    0.6206452 
O     0.9215183    4.3089404    0.4964970 
O    -1.2582579    5.1231620    0.7594489 
