59
Energy = -11862.45474049
C    -0.3562013    1.0366494    0.1299225 
C    -0.9449611    0.9283835    1.3963263 
C    -0.1746449    0.8725774    2.5533631 
C    -1.3017727    1.1887029   -1.0404456 
C    -1.4631539    2.5763624   -1.6291208 
C    -2.6115700    3.2762027   -1.2289409 
C    -0.5647087    3.2201335   -2.5094226 
O     0.5380174    2.5867527   -2.9911466 
H    -3.3148668    2.7822991   -0.5555077 
H    -2.2904469    0.9126719   -0.6623622 
H    -2.0340461    0.8994667    1.4672734 
H    -0.6496649    0.7900107    3.5306057 
Br   -1.0519809   -0.2244148   -2.4444741 
H     0.8234356    1.8431004   -2.3706522 
O    -0.6517692    4.5249007    1.5890088 
Br    0.5989287    4.4723085   -5.5525705 
C     1.2110410    0.9179309    2.4445295 
C     1.0525208    1.0556750    0.0393680 
C     1.8545079    1.0146471    1.2016972 
C     4.4473267    3.0963608    2.2031196 
C     4.0061342    2.4441510    1.0449869 
C     4.1345684    3.1085770   -0.1929118 
C     3.3669612    1.0877898    1.2439085 
O     3.7738105    2.4238958   -1.3118582 
O     2.7122755    3.9609382   -3.0719140 
O     1.5992723    1.0724296   -1.2041152 
H     3.6494659    0.7707288    2.2520661 
H     4.3651293    2.5776216    3.1605347 
H     1.8252273    0.8706303    3.3461626 
H     1.8342631    3.4904437   -3.2360753 
H     3.5519635    3.0577592   -2.0669053 
H     2.5442747    1.4345711   -1.1858529 
Br    4.2334206   -0.3652544    0.1605283 
Br    5.8868748    4.3368371   -2.9407950 
C     4.9763951    4.3823307    2.1561271 
C    -2.8737310    4.5688404   -1.6686190 
C    -0.8037975    4.5382984   -2.9534893 
H    -3.7771705    5.0878687   -1.3492048 
C    -1.9720419    5.1847514   -2.5311032 
C     0.1396793    5.3560365   -3.8085191 
H     0.3676285    7.8720054   -3.1291738 
H    -0.4480916    6.2042236   -4.1715522 
H    -2.1668968    6.1990060   -2.8856297 
C     0.2362424    4.4478814    0.8307842 
O     1.1296725    4.3807335    0.0761261 
C     4.6609059    4.4168249   -0.2646170 
C     1.2639365    7.3269033   -2.8257703 
C     1.3491148    5.9593000   -3.1252164 
C     2.2878593    7.9988296   -2.1672472 
C     3.4275080    7.2934043   -1.7935008 
C     3.5614922    5.9250905   -2.0588942 
C     2.5210488    5.2679378   -2.7486484 
C     4.8048711    5.2557085   -1.5181341 
C     5.0778610    5.0261797    0.9277029 
H     5.4998421    6.0321717    0.8787815 
H     5.4880347    6.0676319   -1.2521690 
H     4.2392121    7.8084810   -1.2756141 
H     5.3181928    4.8735649    3.0670210 
H     2.2026649    9.0646406   -1.9559829 
