63
Energy = -1870.118711140
C     1.0787899    0.9740578   -0.2676777 
C    -0.2563543    1.4432739   -0.2804319 
C    -0.6706612    2.2999915    0.7431729 
C     0.2223203    2.7233133    1.7243360 
C     1.5546527    2.3160490    1.6786150 
C     2.0114930    1.4487915    0.6829302 
C    -1.2270682    1.0994083   -1.3950625 
C    -1.7278728    2.3574927   -2.0756683 
C    -3.0739240    2.7360977   -2.0965619 
C    -3.4588393    3.9441129   -2.6842015 
C    -2.5057602    4.8139857   -3.2234863 
C    -1.1489216    4.4780899   -3.2104367 
C    -0.7988131    3.2353549   -2.6564961 
C    -0.0597610    5.4278511   -3.6642320 
C     0.8378505    5.8038157   -2.4978820 
C     0.2541622    6.2522880   -1.3103969 
C     1.0319586    6.5492595   -0.1924430 
C     2.4109220    6.3591549   -0.2316069 
C     3.0377854    5.8979858   -1.3926418 
C     2.2453721    5.6794551   -2.5445995 
C     4.5230584    5.5889285   -1.3568700 
C     4.8315869    4.5712434   -0.2781070 
C     5.6808040    4.8289349    0.8019851 
C     5.8822197    3.8602315    1.7887408 
C     5.2067724    2.6364446    1.7404116 
C     4.3354559    2.3464298    0.6860004 
C     4.1950875    3.3202589   -0.3175929 
C     3.4872882    1.0929440    0.6369425 
O     3.3270725    3.0889623   -1.3549578 
O     2.8915254    5.4639874   -3.7354805 
O     0.5263933    2.8891918   -2.5800873 
O     1.4084353   -0.0442608   -1.1255486 
H     3.7065486    0.5011819   -0.2606472 
H     3.7430068    0.4593118    1.5004553 
H     5.3451609    1.9036402    2.5382676 
H     6.1926140    5.7913785    0.8663524 
H     5.0956586    6.5069194   -1.1543711 
H     4.8498051    5.2220359   -2.3393891 
H     3.0141185    6.5378709    0.6611073 
H    -0.8320785    6.3513678   -1.2602221 
H     0.5404723    4.9882568   -4.4708566 
H    -0.5294236    6.3344524   -4.0768419 
H    -2.8172206    5.7725846   -3.6442167 
H    -3.8244742    2.0808681   -1.6492424 
H    -0.7363340    0.4338164   -2.1179911 
H    -2.0884085    0.5475736   -0.9882124 
H    -1.7006686    2.6629670    0.7462684 
H     2.2643908    2.6907900    2.4189891 
H    -0.1150567    3.3933960    2.5167959 
H    -4.5138520    4.2222925   -2.7036078 
H     0.5563039    6.9082608    0.7217253 
H     6.5593375    4.0687543    2.6187009 
O     2.8836134    3.9895658   -4.1955658 
H     3.4905827    3.5423694   -3.5423949 
O     4.0677830    2.2734516   -2.3881718 
H     3.4475294    1.4676154   -2.3582300 
O     2.2199055    0.4117568   -2.3586620 
H     1.5564523    0.9312581   -2.8951344 
O     0.9050279    2.2683808   -3.9034579 
H     1.6199629    2.9475692   -4.1408899 
C     6.8901641    1.6337317   -1.5296866 
O     6.5492075    0.5580697   -1.2147116 
O     7.2599164    2.6995987   -1.8425360 
