63
Energy = -3161.894850805
C    -1.4678757    2.2944862   -2.0996912 
C    -2.7710514    2.7867773   -2.2773284 
C    -0.4233046    2.9298036   -2.8085421 
O     0.8727358    2.5487533   -2.7832261 
S    -1.3087529   -0.5386867   -1.9790824 
O    -0.5329810    0.6557231   -5.2679971 
C    -1.7012844    0.7001357   -5.1655615 
H     0.9094985    2.6180288   -5.1934914 
H     0.0032027   -0.5795766   -2.2959446 
H    -3.5849926    2.2934719   -1.7409611 
O    -2.8675276    0.7464121   -5.1021686 
H     1.0596044    1.7341495   -2.2436849 
H     3.4957102    3.1935025   -2.0555323 
C    -3.0581475    3.8581503   -3.1157104 
H    -4.0847331    4.2025047   -3.2393988 
S     1.2813686    3.8411764   -5.6375968 
C    -2.0119345    4.4893556   -3.7852576 
C    -0.6960533    4.0492828   -3.6310026 
C     0.4220964    4.8221982   -4.2958724 
H    -0.2458806    6.9774176   -3.0009859 
H    -0.0613671    5.6172363   -4.8801220 
H    -2.2106417    5.3452248   -4.4341899 
C     0.7555590    6.6711195   -2.6902504 
H     2.7244141    3.7489165   -4.2126598 
O     3.2583493    4.0691299   -3.4214009 
H     5.3969508    4.2408077   -3.3053429 
S     6.0219787    5.1928586   -2.5808159 
C     1.3240517    5.5390614   -3.2904644 
C     3.3090141    5.8578413   -1.8712876 
C     2.6167305    5.1569564   -2.8811287 
C     4.6816074    5.4815651   -1.3315328 
H     5.0625504    6.4157160   -0.8948009 
C    -1.3109521    1.1201476   -1.1420211 
C    -0.3250427    1.3039738    0.0019548 
C    -0.8313485    1.8296423    1.1954632 
C    -0.0093642    2.0569145    2.2958983 
H    -2.2891737    1.0524416   -0.6454723 
H    -1.8968148    2.0618571    1.2547008 
H    -0.4238734    2.4570250    3.2213739 
O     3.5255167    2.6310130   -1.2338615 
C     1.3471091    1.7683554    2.2010340 
C     1.0529835    1.0094925   -0.0630294 
C     1.9125898    1.2571950    1.0246413 
C     4.8270683    2.8747814    2.1355033 
C     4.1641052    2.4090012    0.9985495 
C     4.1282030    3.2088966   -0.1675983 
C     3.4320704    1.0861693    1.0617799 
O     1.5140129    0.4978451   -1.2520803 
H     3.6594979    0.6552779    2.0468128 
H     4.8617445    2.2417931    3.0250712 
H     2.0036569    1.9643929    3.0517195 
H     2.4628153    0.1919061   -1.1152326 
S     4.1657556   -0.2018335   -0.0783478 
H     4.6765156    0.6781698   -0.9710083 
H     0.9547351    8.2610155   -1.2463610 
C     1.4196303    7.3853794   -1.6997538 
C     2.6852889    6.9696506   -1.2950270 
C     5.4257072    4.1325881    2.1449732 
H     5.9408784    4.4953680    3.0344341 
H     3.2131642    7.5177290   -0.5116289 
C     4.7018601    4.4991180   -0.1675872 
C     5.3417000    4.9271209    1.0062156 
H     5.7949699    5.9213386    1.0119619 
