71
Energy = -1726.881096508
C    -0.4052236    1.1802056    0.1107424 
C    -1.0420365    1.2681027    1.3505849 
C    -0.3274710    1.3309500    2.5518562 
C    -1.2159071    1.1958342   -1.1719420 
C    -1.4265504    2.5981794   -1.7157322 
C    -2.5252033    3.3520822   -1.2863044 
C    -2.7557293    4.6582222   -1.7248881 
C    -1.8427886    5.2089338   -2.6319272 
C    -0.7245108    4.5040905   -3.0813560 
C    -0.5252781    3.1947881   -2.6119540 
C     0.2909804    5.1778925   -3.9856161 
H    -0.2327928    5.9232355   -4.6006724 
H    -1.9967336    6.2296971   -2.9925857 
H    -3.2274526    2.8940883   -0.5843113 
H    -0.7441104    0.5547984   -1.9314071 
H    -2.2027550    0.7594619   -0.9620887 
H    -2.1351124    1.2950245    1.3759791 
C    -1.0388826    1.3918474    3.8778562 
H    -1.9756123    1.9624288    3.8045553 
H    -1.2988237    0.3837639    4.2394449 
H    -0.4119127    1.8638296    4.6469196 
C    -3.9242339    5.4614306   -1.2195770 
H    -4.4317153    5.9943722   -2.0367902 
H    -4.6635606    4.8210006   -0.7199551 
H    -3.5942280    6.2200197   -0.4917948 
H     0.2593326    7.7225376   -3.0926321 
O    -0.2930972    6.4405974    0.3998807 
O     0.5842047    2.5114226   -3.0729164 
O     0.9886387    4.5187773    0.0158466 
C     0.3470345    5.4796697    0.1982817 
H     0.7324136    4.4492794   -4.6812603 
H     2.7851799    9.8102236   -1.2304994 
H     1.1427975    9.3449183   -0.7419340 
H     0.8767327    1.8412923   -2.3787616 
H     1.4383337    9.9345188   -2.3861899 
C     0.9978997    1.1454473    0.0818403 
C     1.0679876    1.3033843    2.4791037 
C     1.7539682    1.2053139    1.2638652 
C     1.3747858    5.8921559   -3.1964516 
C     1.1818446    7.2170075   -2.7940033 
C     2.1224955    7.9113692   -2.0258952 
C     3.2929101    7.2360324   -1.6682910 
C     3.5306525    5.9086214   -2.0375442 
C     2.5587102    5.2448888   -2.8010871 
C     4.7774291    5.1928843   -1.5518087 
C     4.5755973    4.5120945   -0.2090693 
C     4.8348008    5.2117905    0.9744688 
C     4.6362093    4.6464700    2.2369689 
C     4.1499876    3.3356181    2.2928686 
C     3.8669639    2.5974521    1.1418065 
C     4.0891117    3.1990207   -0.1072100 
C     3.2729782    1.2050530    1.2502589 
O     3.8255853    2.4453995   -1.2366315 
O     2.8095862    3.9341590   -3.1632348 
O     1.6100359    1.0348704   -1.1531414 
H     3.6495787    0.5650415    0.4383530 
H     3.6213912    0.7549375    2.1906465 
H     3.9770146    2.8700484    3.2672807 
H     5.2124946    6.2355424    0.9018125 
H     5.5806537    5.9351014   -1.4413785 
H     5.1213843    4.4680118   -2.3044724 
H     4.0479641    7.7549557   -1.0713801 
H     1.6513589    1.3531959    3.4028164 
H     1.9376012    3.4428534   -3.2731900 
H     3.5830752    3.0517085   -2.0025853 
H     2.5239394    1.4581032   -1.1177843 
C     4.9640293    5.4080283    3.4942201 
H     4.9471192    6.4927524    3.3205698 
H     4.2499185    5.1806975    4.2985993 
H     5.9681434    5.1503240    3.8681964 
C     1.8627627    9.3242287   -1.5758669 
