95
Energy = -2557.306058487
C    -3.3540416   -0.3287591   -1.5595192 
H    -0.3483615   -3.1112072   -1.2439328 
H    -3.3709395   -1.4164558   -1.4347960 
H    -3.9969931   -0.3777102   -3.6249081 
C     0.5546165   -2.6834851   -0.8045183 
C    -3.7075794    0.2478412   -2.7796024 
C    -3.6790891    1.6390183   -2.8776555 
H    -3.9488455    2.1400803   -3.8090631 
H    -0.5019996    2.4722678   -0.7913500 
C    -3.2942519    2.3872777   -1.7683201 
N    -2.9806349    0.3771745   -0.4848150 
H     1.9392597   -3.7482602   -2.0981012 
C     1.8167544   -3.0375873   -1.2798669 
H     5.4875871   -0.3150470   -3.0094855 
C     5.3144697    0.7573891   -2.9034573 
H     5.5131428    1.2103816   -5.0202154 
C     5.3282914    1.5967879   -4.0171983 
C     5.0658146    1.3049266   -1.6475004 
H     2.4203321    2.2271541   -0.7982310 
C     5.0957043    2.9570873   -3.8129610 
H     5.1047703    3.6538789   -4.6575462 
C    -3.2824629    6.9027303   -2.2938285 
H    -3.2563016    3.4755463   -1.8178490 
H    -2.2466252    5.0170504   -4.9313818 
N    -0.9970736    5.4897322   -3.3552031 
C    -1.2004461    5.1078627   -4.6215474 
O    -0.4886030    3.3856546   -1.2324150 
H    -0.3904555    4.5170737   -6.5386540 
C    -0.1685670    4.8334471   -5.5189193 
C     0.2679227    5.6088143   -2.9182107 
C     1.1431705    4.9791246   -5.0690814 
H     1.0471562    3.6283071   -1.4767989 
O    -2.7073272    7.9217499   -2.3523078 
H     0.2793727    7.1900714   -1.5605283 
C     0.4281649    6.0993570   -1.4802803 
H     1.9864659    4.7788429   -5.7323735 
C     4.8300542    2.6826737   -1.5443555 
C     1.3686008    5.3747535   -3.7526134 
H     2.3839409    5.4810345   -3.3701011 
N     4.8521325    3.4970368   -2.6123872 
O     2.0604297    3.6107003   -1.4447849 
C     1.8211833    5.9496754   -0.8688904 
C     2.5503052    4.7439956   -0.8452441 
H     1.8461156    8.0154404   -0.2779153 
C     2.4000406    7.0740937   -0.2655401 
C    -2.9426513    1.7155119   -0.5896943 
H     0.8797047    1.0943139   -0.0698794 
O    -0.1278552    1.1753565    0.0135387 
C    -0.5122335    1.0953710    1.3281934 
C     0.2707436    0.4010000    2.2723567 
C    -1.7365612    1.6927385    1.6794509 
C    -0.2033144    0.3353576    3.5895513 
H     0.3932810   -0.2001148    4.3315711 
C    -1.4074498    0.9229792    3.9638231 
H    -1.7590890    0.8513153    4.9934045 
C     0.4574935   -1.7648824    0.2381410 
H    -0.5165363   -1.4587445    0.6208573 
C    -2.1651660    1.5918718    3.0045327 
H    -3.1182162    2.0466831    3.2836182 
C    -2.5879048    2.4792727    0.6860937 
H     3.9408711   -2.7086052   -1.0104889 
O     2.4115456    1.3671010   -0.2619969 
H     5.0333774    0.6714319   -0.7605262 
C     2.9302723   -2.4528782   -0.6754191 
C     1.6136060   -0.2608044    1.9604508 
H     1.7969661   -0.9194343    2.8268833 
C     1.6335699   -1.2200111    0.7704209 
C     2.7803927    0.7251464    1.9942398 
N     2.8525995   -1.5668851    0.3244826 
C     3.5151951    0.8603203    3.1739851 
C     3.1277401    1.5356080    0.8980369 
H     3.2557461    0.2315884    4.0285607 
C     4.5647028    1.7713543    3.2748841 
O    -3.9205583    5.9220074   -2.2329586 
C    -0.6794356    5.6461605   -0.5283347 
H    -3.5589092    2.5942150    1.1983154 
C    -1.0874220    4.3046144   -0.4060789 
H    -0.9830943    7.6435058    0.1981477 
C    -2.0978692    3.9169745    0.4977739 
C    -2.6768398    4.9138244    1.2935281 
H    -3.4631331    4.6281498    1.9956682 
C    -2.2816422    6.2448428    1.2026843 
C    -1.2894261    6.5997812    0.2911064 
H    -2.7506774    7.0033782    1.8299598 
C     3.6546596    7.0168413    0.3330458 
H     4.0880871    7.9069279    0.7898496 
C     4.3566923    5.8131183    0.3292223 
H     5.3478113    5.7596168    0.7850080 
C     3.8240857    4.6614473   -0.2539231 
C     4.6251791    3.3628229   -0.1904745 
H     5.6409315    3.6900908    0.0915679 
H     5.1294396    1.8615783    4.2032169 
C     4.8953043    2.5531440    2.1725850 
C     4.1949975    2.4538779    0.9628143 
H     5.7251546    3.2605113    2.2378527 
