111
Energy = -3015.130377928
H     5.9425303    3.1380689   -6.0239805 
C     5.9253843    2.7705001   -3.8966622 
H     3.9646872   -4.4291891   -1.9143496 
H     5.8650165    1.6821835   -3.9882520 
C     5.9687637    3.5776072   -5.0272647 
H     2.4445428    5.4463484   -7.1933032 
H     0.3249926    4.9001350   -5.9791379 
O     1.1072112    7.8242227   -2.7955440 
C     1.4424763    7.1874804   -3.9453537 
C     2.6559418    7.5755237   -4.5436826 
H     3.2699859    8.3420924   -4.0719901 
C     3.0206820    6.9492648   -5.7243686 
H     3.9527398    7.2236492   -6.2211428 
C     2.1855630    5.9650253   -6.2707070 
H     0.2475372    5.3329887   -2.2410972 
N     0.6331668    6.2585023   -4.4497520 
C     1.0098042    5.6615537   -5.5948866 
H    -0.9230256    7.3218975   -2.8138746 
C    -0.0829645    7.3955020   -2.1083786 
H     6.0722725    5.6378682   -5.6984723 
C     6.0391192    4.9648864   -4.8402076 
C     6.0622328    5.4806299   -3.5543737 
H     6.1063471    6.5503366   -3.3521942 
N     5.9492540    3.2482132   -2.6397563 
C     6.0168380    4.5686366   -2.4835747 
H    -4.0112351    0.6363945    0.6304675 
H    -8.1734857   -0.1869586    0.6415853 
C    -4.0172994    1.7364531    0.6495817 
N    -6.4945265    0.9070900    1.1560571 
H    -9.4794026    0.4316729    2.6851043 
C    -7.7434302    0.4709900    1.4023121 
C    -5.9374844    1.7086116    2.0598474 
C    -7.8629820    1.6604134    3.4750230 
H    -4.5925173    2.0848480   -0.2221969 
O    -4.6790224    2.1727882    1.8539062 
C    -6.5764883    2.1215733    3.2442590 
C    -8.4697063    0.8135837    2.5366397 
H    -8.3942730    1.9557479    4.3813175 
H    -2.8707962    2.5180432    3.2936846 
O    -1.1218212   -1.9898611    0.8708553 
C    -0.7445919   -1.9931948   -0.2376010 
O    -0.3995344   -2.0106440   -1.3570071 
H     1.7798033   -3.3300637   -1.3994706 
C     3.8101265   -3.9282668   -0.9591744 
H     0.8694621    1.0534484   -0.0509003 
O    -0.1279828    0.9759967    0.0267034 
C    -0.4415993    1.1415193    1.3698493 
C     0.4485059    0.6933961    2.3626761 
C     0.1190377    0.9524236    3.6971999 
C     1.7449000   -0.0262845    2.0005414 
H     0.8124963    0.6582586    4.4867401 
H     1.6882713   -0.3507821    0.9532016 
C     2.9325335    0.9130887    2.1330701 
C     1.8620095   -1.3311531    2.7997113 
C     3.7188110    0.9913361    3.2847119 
C     3.2094812    1.7985045    1.0759654 
O     3.1124065   -2.0084613    2.5794423 
H     1.8440892   -1.1580352    3.8824820 
H     1.0215831   -1.9861420    2.5310796 
C     3.3093858   -2.6334287    1.3926008 
N     2.3341415   -2.6794140    0.4849542 
C     4.5785249   -3.2136150    1.2052332 
C     2.5950739   -3.3196953   -0.6718531 
H     3.5359164    0.3004276    4.1083216 
O     2.4424018    1.6677492   -0.0623645 
C     4.8215277   -3.8692611    0.0095444 
C    -1.6591858    1.7722594    1.6824327 
C    -1.0667280    1.6012786    4.0332444 
H     5.3285774   -3.1310241    1.9910756 
H    -2.2426376    1.7581003   -0.3626072 
H    -1.3019911    1.8017220    5.0791621 
C    -1.9488251    2.0029840    3.0323202 
C     4.7377756    1.9363276    3.3934775 
H     2.4613812    2.4964822   -0.6280678 
C    -2.5800104    2.2543991    0.5618949 
H     5.7938699   -4.3298920   -0.1728744 
H    -6.0589624    2.7794492    3.9422798 
H    -4.0680025    4.3542094    1.5907423 
C     0.1139357    6.0418993   -1.4132343 
H    -0.2736891    8.2088467   -1.3982440 
O    -0.5316081    3.3628669   -1.1326703 
H    -0.5292560    2.4490000   -0.7265123 
H     1.0700693    3.7644852   -1.5379671 
O     2.0599184    3.8871195   -1.4754788 
H     5.3453863    1.9850126    4.2977608 
H    -3.6955903    6.7871104    1.2738628 
C    -3.2479371    4.7011783    0.9645342 
H    -1.7983539    7.5835602   -0.0956749 
H     4.2168051    3.2278361   -0.9186435 
C     4.2234048    2.7717709    1.1645037 
C    -1.1120066    5.6062817   -0.6232188 
C     1.3667367    6.0174849   -0.5417993 
H     0.9222109    7.8640547    0.4725606 
C    -1.9682703    6.5116580    0.0101118 
C     4.9749108    2.8231515    2.3443712 
C    -2.4203335    3.7553875    0.3459800 
C    -1.3646553    4.2310421   -0.4569740 
C    -3.0350513    6.0666783    0.7899655 
C     4.4295273    3.7552979    0.0216227 
C     3.4684081    4.9337325    0.1373577 
C     3.6968256    5.9846278    1.0280578 
C     2.2893784    4.9592748   -0.6269583 
C     1.6322230    7.0411630    0.3724653 
C     2.7846798    7.0308990    1.1549386 
H     2.9732028    7.8391847    1.8623939 
H     5.7647328    3.5682561    2.4477817 
H     4.5969258    5.9779051    1.6452993 
H     6.5292160    3.3143816   -0.2520527 
C     5.8897356    4.1987298   -0.1223279 
O     6.0528489    5.0991193   -1.2345278 
H     6.2407868    4.7821532    0.7373587 
