115
Energy = -2950.972973730
O     0.0565978    0.9242409    0.2195705 
C    -0.3080088    1.1651199    1.5343499 
C    -1.5761516    1.7279531    1.7630185 
C    -2.5164688    2.0604980    0.6169992 
H    -2.3314089    1.3852325   -0.2319401 
H    -0.4143427    2.2315658   -0.6810246 
H    -3.5465349    1.8700714    0.9491537 
O    -0.4617570    3.0957468   -1.1931695 
H     1.0489894    1.0553173    0.1560259 
H     1.9293532   -0.3530804    1.4191602 
C     3.2760194    2.0637951    1.2113657 
O     2.5691286    1.7617467    0.0676467 
C     4.2043613    3.1189876    1.2402891 
H     2.5498172    2.5318756   -0.5728432 
H     4.4145778    3.4997566   -0.8866851 
C     1.9321057    0.2324358    2.3505380 
C     4.3806556    4.0560640    0.0615225 
H     5.3524789    4.5589586    0.1647127 
O     2.0764184    3.8191841   -1.5801572 
H     1.1037928    3.5903335   -1.6427899 
C    -2.4275044    3.5093670    0.1744002 
C    -1.3919028    3.9600360   -0.6657259 
C    -3.3672057    4.4443260    0.6177550 
C    -3.3107303    5.7900961    0.2418692 
C    -2.2570470    6.2019544   -0.5755532 
C    -1.2765968    5.3135000   -1.0201778 
H    -2.1849304    7.2501765   -0.8786117 
H    -5.3716676    6.3726576    0.4577557 
H    -4.1749432    4.1077076    1.2726189 
C    -4.3715910    6.7578232    0.7042445 
H    -0.2853194    6.8092003   -2.1759168 
C    -0.0594860    5.8138927   -1.7670510 
H     0.1729448    5.1686854   -2.6268722 
H     0.4132536    7.7334249    0.0798082 
C     1.2284063    7.0056597    0.0485243 
C     3.2909108    5.1129711    0.0151767 
C     2.1638839    4.9674433   -0.8103146 
C     1.1455463    5.9357360   -0.8473310 
C     3.3391148    6.2091984    0.8760119 
C     2.3019634    7.1436310    0.9301204 
H     4.1832186    6.3057075    1.5634877 
H     1.6455034    9.0461139    1.7117250 
C     0.1741363    1.2029181    3.8865893 
C    -1.9348136    2.0275070    3.0766937 
C    -1.0640104    1.7905498    4.1456466 
H    -2.9050523    2.4921235    3.2693436 
C    -1.4493041    2.2059855    5.5346074 
H    -2.4375318    1.7971858    5.8143408 
H    -0.7022435    1.8574865    6.2673672 
C     0.5676307    0.8602094    2.5886238 
O    -1.5132443    3.6429373    5.5500849 
C    -2.1928834    3.5778166    7.9028717 
H    -2.7690702    3.7792664    9.9665839 
C     3.0414855    1.2637108    2.3404560 
H     0.8647503    1.0248566    4.7152769 
C     4.9125197    3.3366394    2.4237340 
H     2.1293730   -0.4789628    3.1650450 
C     3.7901313    1.5062645    3.4933065 
H     3.6139994    0.8798442    4.3695647 
C     4.7292458    2.5400793    3.5575609 
C     5.4641349    2.8641731    4.8279475 
H     5.6252315    1.9685515    5.4473329 
H     6.4471773    3.3012923    4.6075398 
O     4.7897914    3.8986230    5.5806049 
H     5.6317827    4.1592295    2.4612083 
C     3.3984287    2.2928748    6.8154954 
H     2.0661922    1.0953469    8.0068669 
C     2.2619169    2.0915806    7.6044442 
H    -4.2542198    7.7333287    0.2034359 
C    -2.5352578    4.3126210    9.0433154 
C    -1.8855699    4.2530965    6.7132031 
C    -2.5776546    5.7051740    9.0118125 
H    -2.8426198    6.2699751    9.9061031 
H    -4.4184648    7.3226873    4.6281898 
C    -1.9409392    5.6555912    6.6702630 
O    -4.4188806    6.9283328    2.1305251 
C    -3.6429352    7.8965291    4.1193453 
H    -2.9009587    8.8292058    5.9048781 
C    -2.2819119    6.3684912    7.8146006 
H    -2.3167576    7.4585689    7.7703457 
H    -1.7187441    6.1628123    5.7308024 
C    -2.5179113    8.4886375    2.0579297 
H    -0.8818467    9.8729109    2.2520030 
C    -1.6629129    9.3242889    2.7826613 
C    -3.5139306    7.7675716    2.7283630 
C    -1.7866473    9.4577103    4.1633929 
H    -1.1006014   10.0936568    4.7227100 
C    -2.7875024    8.7378888    4.8234039 
O    -0.9078242    5.6353588    2.9813316 
H     0.7511277    6.6202747    5.3051545 
H     0.3795182    7.8333377    7.4446201 
H     0.5058830    2.9860427    8.5025963 
C     0.8231453    8.3577734    6.5963566 
O     0.8348449    4.2419311    2.2715622 
C     3.6729703    3.5696924    6.3058156 
C     2.2842784    8.1932623    2.0000123 
C     1.0305522    7.6687608    5.4077120 
C    -0.0354098    4.9406662    2.6287672 
C     1.3913789    3.1433990    7.8869983 
C     1.1650660    9.7115563    6.7040457 
H     0.9994838   10.2504507    7.6374317 
O     1.7466220    7.5652012    3.1798159 
C     1.5895169    8.3283524    4.3021777 
H     3.2996661    8.5704821    2.2145770 
C     1.9372137    9.6821371    4.3993301 
H     1.9901036   11.4175374    5.6712198 
C     1.7192659   10.3623020    5.6031044 
H     0.9827339    5.2394941    7.5692054 
C     2.7940539    4.6278489    6.5820157 
C     1.6652350    4.4125447    7.3667431 
H     3.0158593    5.6128524    6.1693404 
H    -2.1598972    2.4904983    7.9536834 
H     4.0687807    1.4559683    6.6255525 
H     2.3705971   10.2126322    3.5526639 
H    -2.3842877    8.3914836    0.9837032 
