83
Energy = -2248.843899354
C     0.9419481    1.3049261    0.0855733 
C    -0.4564934    1.3139660    0.0097338 
C    -1.1967942    0.9908773   -1.2738440 
C    -1.5113640    2.2661976   -2.0348538 
C    -2.7204096    2.9393085   -1.7944312 
C    -3.0103814    4.1494517   -2.4361547 
C    -2.0521235    4.6957724   -3.3026312 
C    -0.8364629    4.0602808   -3.5438837 
C    -0.5765444    2.8347983   -2.9071958 
C     0.2040341    4.7227997   -4.4266314 
C     2.4237476    5.0342061   -3.1915512 
C     4.6192511    5.2529961   -1.9240690 
C     4.4416380    4.7558531   -0.5019652 
C     3.9641032    3.4668127   -0.2314506 
O     3.7239452    2.5578272   -1.2461633 
O     2.7763543    3.7171985   -3.4416665 
O     0.6302829    2.2072889   -3.1809502 
O     1.6471926    0.9155427   -1.0418866 
H     4.9904124    4.4493447   -2.5757947 
H     0.7335730    3.9686790   -5.0271701 
H    -3.4372289    2.4770410   -1.1152221 
H    -0.6194632    0.2922507   -1.8952137 
H    -2.1411712    0.4866045   -1.0236279 
H     1.9370058    3.1634240   -3.4873215 
H     3.4962061    3.0363593   -2.1013925 
H     2.5170347    1.4169605   -1.0516013 
H     0.9050122    1.6212861   -2.4163745 
H    -5.2470430    3.3239461   -1.3716965 
H    -0.3145418    5.3829988   -5.1356574 
C    -5.2029958    4.4224897   -1.3760381 
O    -4.1767689    4.8558616   -2.3259499 
C     1.1975505    5.5605806   -3.6391702 
C     0.8738931    6.8759757   -3.3044551 
C     1.7476990    7.6799606   -2.5625345 
C     2.9808239    7.1487421   -2.1668758 
C     3.3254737    5.8266385   -2.4716045 
H     5.3848622    6.0420648   -1.9270062 
H     3.7023075    7.7495025   -1.6125305 
H    -0.0793991    7.3021336   -3.6220352 
H    -2.2835407    5.6410624   -3.7967498 
O     1.3242015    8.9543153   -2.2892230 
C     2.0895002    9.7110622   -1.3060397 
H     3.1410445    9.7542917   -1.6302807 
H     1.6574754   10.7163889   -1.3784682 
N     2.0169862    9.2523132    0.0441103 
H     2.3846871    8.3070079    0.1577497 
H     1.0573688    9.2545929    0.3905127 
O     1.0564145    6.2283535    1.1012744 
H    -6.1242354    4.8078279   -1.8318460 
O     0.7553779    4.5003292   -0.4497996 
H    -4.2726136    4.5980968    0.4789245 
H     3.5465407    0.9270081    0.7183415 
C    -1.1897258    1.7832262    1.1015079 
C    -0.5510278    2.2878479    2.2374696 
C     0.8418433    2.2165033    2.3181894 
C     1.6024537    1.7079082    1.2617701 
C     4.4627706    5.2329275    1.8912839 
C     3.9927970    3.9353760    2.1341068 
C     3.7291511    3.0494690    1.0912039 
C     3.1178472    1.6928444    1.3806268 
H     3.3801995    1.4050188    2.4083064 
H     3.8189448    3.6329490    3.1681792 
H    -2.2770964    1.7873540    1.0226983 
H     1.3341440    2.5936652    3.2163419 
O    -1.2195229    2.8871616    3.2797235 
C    -2.5099726    3.4588996    2.9325208 
H    -3.2033446    2.6489693    2.6566549 
H    -2.8566501    3.9112102    3.8687722 
N    -2.4919698    4.4498293    1.8918437 
H    -2.0676533    4.0780496    1.0368402 
H    -1.9548770    5.2711029    2.1752542 
C     0.9179543    5.3614076    0.3229197 
N    -5.0896022    4.9175788   -0.0491676 
H    -5.1132454    5.9361605   -0.0202687 
C     4.6855789    5.6309485    0.5682090 
H     7.1718703    6.9350272    3.2386764 
O     4.6502503    6.0200744    2.9954310 
H     6.8469538    6.9264427    1.6181672 
H     4.6613334    7.8660537    2.0117092 
H     5.0403672    7.8392062    3.7565680 
C     5.2270873    7.3410477    2.7975664 
N     6.6245223    7.3824880    2.5029975 
H     5.0438468    6.6335595    0.3319338 
