95
Energy = -2405.915820926
C    -0.3448398    0.8773550    0.1484643 
C    -1.0373599    0.7945536    1.3602440 
C    -0.3513624    0.7083500    2.5738285 
C    -1.1066526    1.0761843   -1.1496903 
C    -1.3823100    2.5458743   -1.4126994 
C    -2.5089642    3.1437604   -0.8389557 
C    -2.7471413    4.5112794   -0.9679539 
C    -0.7285772    4.7311464   -2.3051769 
C    -0.4878536    3.3579627   -2.1310462 
H    -3.2161396    2.5414202   -0.2660681 
H    -0.5636965    0.6213051   -1.9900901 
H    -2.0696022    0.5518673   -1.0741274 
H    -2.1291415    0.8015233    1.3630049 
O    -1.0323898    0.6222569    3.7759366 
C    -1.6181549    1.8653577    4.2166275 
C    -0.5632473    2.8610873    4.7085136 
N    -1.0909446    4.1414337    5.1781385 
H    -2.3044959    1.5909515    5.0315874 
H    -2.2141312    2.3184896    3.4030962 
H    -1.6329527    4.0095811    6.0346023 
H    -4.0449170    4.2754807    2.1859474 
H    -2.3435858    4.4014125    1.7357262 
O     0.6689426    2.8349460   -2.6817286 
H    -1.7311324    4.5796671    4.4908766 
H     0.0184423    2.3898023    5.5172400 
H     0.1447207    3.0550247    3.8881074 
C    -3.2328904    4.9958215    1.9956647 
O    -3.8764007    5.0627451   -0.3877888 
H     0.4121762    5.6141487    5.0779081 
H     0.9711930    2.0495685   -2.1347959 
C     1.0599477    0.8714850    0.1719153 
C     1.0420661    0.6657375    2.5714599 
C     1.7688008    0.7473704    1.3793252 
C     4.4339270    4.4107835    0.7293294 
C     4.2163383    4.1023597    3.1336857 
C     3.8641986    2.7660338    2.9309584 
C     3.7715727    2.2358760    1.6405963 
C     4.0413017    3.0736875    0.5454871 
C     3.2846252    0.8123555    1.4371530 
O     3.8940896    2.5390707   -0.7223902 
O     2.8397102    4.3674896   -2.3676544 
O     1.7219977    1.0058875   -1.0358362 
H     3.7318531    0.3761431    0.5328799 
H     3.6250320    0.2013403    2.2849031 
H     3.6550197    2.1320541    3.7948704 
H     5.0658448    4.8163787   -1.3062818 
H     1.5644580    0.5805611    3.5258752 
H     2.0056572    3.8676873   -2.6163987 
H     3.6430003    3.2698515   -1.3628537 
H     2.6079418    1.4510333   -0.8804311 
H     2.3891144    4.0069626    4.9764008 
O     4.3133538    4.6301728    4.4096886 
C     4.5162451    4.9059968    2.0346982 
C     3.0425496    4.8964396    5.0398017 
H     3.2752795    5.0753068    6.1001636 
N    -2.9516799    5.7392253    3.2232357 
H    -2.8113508    6.5917362    0.5821728 
C    -3.6119924    5.8575105    0.7875070 
H    -4.5428923    6.4113088    0.9803768 
H    -3.8048940    6.1770029    3.5768456 
H    -2.2706259    6.5057067    3.0722033 
C    -1.8649837    5.2938973   -1.7164279 
C     0.2714254    5.6169891   -3.0264389 
H    -0.2738036    6.4423117   -3.5053292 
H    -2.0676756    6.3598877   -1.8374569 
H    -1.0509495    8.8893113    1.1616385 
H     0.0343566    7.9076925   -1.5863250 
H    -1.0008538    8.9319499    3.5288059 
N    -0.8187968    8.0377975    3.0683291 
C    -0.3316561    8.2571966    1.7069597 
H    -0.3085467    7.2888306    1.1839786 
H    -0.1265576    7.5407112    3.6580856 
H     0.7718348    5.0594441   -3.8306551 
H     1.0559164    9.9017973    2.0544383 
N     1.0405817    6.4367026    5.0255784 
H     1.1656730    6.7661090    5.9850379 
H     2.1857428    5.9219570    3.3535285 
C     2.3344864    6.1089273    4.4281087 
H     3.0007848    6.9834948    4.5031296 
H     1.7938323    8.2787533    2.1581568 
C     1.0574988    8.8951248    1.6104180 
C     1.2851663    6.2092122   -2.0638627 
C     0.9704321    7.3867350   -1.3780498 
C     1.8260532    7.9111509   -0.4103431 
C     3.0388583    7.2703761   -0.1467933 
C     3.3876638    6.0917228   -0.8129625 
C     2.4936915    5.5602605   -1.7575733 
C     4.6609386    5.3549239   -0.4379127 
H     4.8071656    5.9433375    2.2089372 
H     5.4188017    6.0939591   -0.1423454 
H     3.7187430    7.6973561    0.5931214 
O     1.4791910    9.0813167    0.2427093 
C     0.6349088    4.4189455    1.2531892 
O     0.1241404    4.9620756    2.1576441 
O     1.1432776    3.8779905    0.3535120 
