59
Energy = -1966.071911910
C     0.8610709    0.9790397    0.0475422 
C    -0.5360843    0.7513619   -0.0762535 
C    -1.2404405    0.3857365    1.0699677 
C    -0.5767570    0.2343353    2.2920190 
C     0.7997746    0.4581871    2.4010447 
C     1.5467045    0.8254392    1.2826766 
C    -1.2146963    0.9572788   -1.4116732 
C    -1.4151570    2.4342093   -1.6791674 
C    -2.2867592    3.1987776   -0.9063819 
C    -2.3998196    4.5755243   -1.1141608 
C    -1.5968016    5.2258457   -2.0563451 
C    -0.7145072    4.5007008   -2.8555884 
C    -0.6570035    3.0891528   -2.6887166 
C     0.2118852    5.1930851   -3.8333320 
C     1.2412898    6.0175793   -3.0946497 
C     1.1434946    7.4028158   -2.9712078 
C     2.1084813    8.1208914   -2.2574433 
C     3.1844232    7.4740551   -1.6409390 
C     3.3259307    6.0903624   -1.7363550 
C     2.3354702    5.3706704   -2.4584740 
C     4.4561616    5.3414451   -1.0680531 
C     3.9707975    4.6661010    0.1976572 
C     3.5621328    5.4087009    1.3041750 
C     3.0578003    4.7697600    2.4412610 
C     2.8901484    3.3832474    2.4675842 
C     3.2822543    2.6008130    1.3833031 
C     3.8651124    3.2488708    0.2594337 
C     3.0302250    1.1078235    1.3577561 
O     4.2859255    2.5166495   -0.7715631 
O     2.4077124    4.0393235   -2.4976635 
O     0.1516339    2.3714928   -3.4680213 
O     1.5397424    1.4078113   -1.0161095 
H     3.5403598    0.6755389    0.4881976 
H     3.4362963    0.6502868    2.2717133 
H     2.4360241    2.9087026    3.3397821 
H     3.6304440    6.4981901    1.2799271 
H     5.2602451    6.0503564   -0.8222858 
H     4.8542808    4.5772865   -1.7471360 
H     3.9267996    8.0570302   -1.0921818 
H     0.3144698    7.9309845   -3.4464692 
H     0.7098321    4.4334497   -4.4487568 
H    -0.3727069    5.8536910   -4.4899787 
H    -1.6563271    6.3109567   -2.1627457 
H    -2.8761639    2.7188089   -0.1225087 
H    -0.6023543    0.5299600   -2.2152703 
H    -2.1901281    0.4493956   -1.4002107 
H    -2.3149555    0.2011396    1.0089011 
H     1.2964068    0.3295501    3.3649745 
H    -1.1423049   -0.0684840    3.1752621 
H    -3.1033407    5.1562464   -0.5144474 
H     2.0207660    9.2061048   -2.1809463 
H     2.7657588    5.3655771    3.3082014 
F     3.2589271    3.7022211   -3.7946454 
F     5.8231997    2.2190662   -0.4480028 
F     2.0646205    0.0911735   -1.7410216 
F    -0.7551926    1.9714091   -4.7227949 
C     0.4192570    5.3981938    0.4848472 
O     0.4718106    4.2301287    0.4681958 
O     0.3576905    6.5686376    0.5149971 
