59
Energy = -3407.476314188
C     1.0605587    1.0732718    0.0291006 
C    -0.3471642    1.0554903    0.1139967 
C    -0.9423065    0.9746927    1.3776364 
C    -0.1784637    0.9372398    2.5403679 
C     1.2079975    0.9713840    2.4369475 
C     1.8544642    1.0431238    1.1956722 
C    -1.2863309    1.1859270   -1.0700256 
C    -1.4604246    2.5858564   -1.6359056 
C    -2.6057817    3.2777061   -1.2202136 
C    -2.8726875    4.5756320   -1.6426660 
C    -1.9786746    5.2010063   -2.5064720 
C    -0.8148537    4.5588537   -2.9438248 
C    -0.5664371    3.2396637   -2.5109440 
C     0.1245817    5.3793750   -3.8081643 
C     1.3184031    5.9959130   -3.0983592 
C     1.2062098    7.3533994   -2.7672854 
C     2.2162667    8.0307424   -2.0924450 
C     3.3698956    7.3392763   -1.7359878 
C     3.5281448    5.9804936   -2.0319688 
C     2.5001032    5.3143754   -2.7329834 
C     4.7832997    5.3117298   -1.5039565 
C     4.6117610    4.4795438   -0.2425622 
C     4.9527457    5.1145019    0.9599563 
C     4.8198244    4.4774135    2.1888577 
C     4.3404680    3.1712794    2.2228166 
C     3.9743848    2.4954179    1.0535086 
C     4.1227059    3.1555519   -0.1847022 
C     3.3714437    1.1140687    1.2351539 
O     3.8039924    2.4606489   -1.3110659 
O     2.7076711    4.0121911   -3.0639026 
O     0.5448591    2.6178232   -2.9935205 
O     1.6150253    1.0871317   -1.2139400 
H     3.6523704    0.8018299    2.2469075 
H     4.2368875    2.6560749    3.1801010 
H     5.3370451    6.1357871    0.9200541 
H     5.4570356    6.1288728   -1.2240497 
H     4.1706981    7.8569164   -1.2040416 
H     0.2994980    7.8874601   -3.0593451 
H    -0.4704827    6.2263158   -4.1668533 
H    -2.1791024    6.2171176   -2.8530304 
H    -3.3069759    2.7720255   -0.5528911 
H    -2.2746275    0.8987369   -0.6947234 
H    -2.0320333    0.9455015    1.4427797 
H     1.8186842    0.9326572    3.3415564 
H     1.8337022    3.5322348   -3.2276644 
H     3.5843427    3.0915731   -2.0654379 
H     2.5585481    1.4408351   -1.1896616 
H     0.8323286    1.8718419   -2.3785031 
H     5.0999038    4.9890118    3.1094065 
H    -0.6585303    0.8685607    3.5164115 
H    -3.7770440    5.0884769   -1.3154833 
H     2.1088722    9.0885167   -1.8536333 
Cl    4.1643607   -0.1663106    0.1998264 
Cl    5.7388435    4.4467181   -2.7989538 
Cl    0.5919365    4.5457437   -5.3663627 
Cl   -0.9864374   -0.0666199   -2.3683303 
C     1.2930389    5.3581310    0.6593763 
O     1.5172408    6.3652745    1.2117210 
O     1.0586695    4.3489599    0.1130983 
