63
Energy = -1870.478002788
C     1.0327531    1.0381106    0.2688896 
C    -0.1303074    1.6235662   -0.2730303 
C    -0.6168001    2.7928356    0.3188669 
C     0.0542636    3.3983225    1.3795661 
C     1.2834708    2.8897760    1.7877805 
C     1.8098141    1.7247650    1.2212066 
C    -0.7877739    1.0601879   -1.5448057 
C    -1.3704773    2.1927351   -2.3627782 
C    -2.7364301    2.4706891   -2.3815538 
C    -3.2260666    3.6316093   -2.9864412 
C    -2.3280487    4.5414379   -3.5439937 
C    -0.9508569    4.2902181   -3.5584898 
C    -0.4815330    3.0786349   -3.0111512 
C     0.0211809    5.3492678   -4.0348237 
C     0.9969718    5.7109361   -2.9153519 
C     0.4534338    6.2979180   -1.7702441 
C     1.2257142    6.4996985   -0.6311490 
C     2.5456773    6.0544186   -0.6143965 
C     3.1376396    5.4757584   -1.7418166 
C     2.3659088    5.3772411   -2.9187257 
C     4.5768619    4.9320157   -1.6486256 
C     4.7981829    4.3123149   -0.2833213 
C     5.4153078    5.0001277    0.7640495 
C     5.4115240    4.4866735    2.0635311 
C     4.7448269    3.2878214    2.3304721 
C     4.1329858    2.5667537    1.3037727 
C     4.2233619    3.0572291   -0.0120178 
C     3.2645179    1.3491531    1.5469807 
O     3.7021290    2.2900362   -1.0130124 
O     2.9725723    4.9333110   -4.0679072 
O     0.8436271    2.8029502   -3.0840400 
O     1.4070871   -0.2056869   -0.1863030 
H     3.3523514    1.0374378    2.5991960 
H     4.6891205    2.9061445    3.3524903 
H     5.8847559    5.9649488    0.5575307 
H     5.2938560    5.7613702   -1.7945039 
H     3.1273481    6.1343623    0.3041276 
H    -0.6068916    6.5619613   -1.7675539 
H    -0.5671667    6.2486431   -4.2841040 
H    -2.6927972    5.4784201   -3.9715075 
H    -3.4221992    1.7765911   -1.8898534 
H    -1.5880479    0.3442971   -1.2816090 
H    -1.5181762    3.2548462   -0.0846205 
H     1.8765105    3.4302460    2.5282212 
H     2.2358632    4.8425895   -4.7473052 
H     4.0338278    2.7194705   -1.8657440 
H     2.3412777   -0.3483573    0.1612416 
H     0.9336914    1.8491441   -2.7838742 
H     5.9045105    5.0309815    2.8691391 
H    -0.3438750    4.3058243    1.8336092 
H    -4.2965153    3.8367090   -2.9990193 
H     0.7905658    6.9581643    0.2570032 
O     3.7480518    0.2163358    0.7687699 
H     4.0279876    0.6146651   -0.0863448 
O     4.8513211    3.9080415   -2.6373079 
H     4.3321033    4.1586587   -3.4434884 
O     0.7144110    4.9616445   -5.2603391 
H     0.3660137    4.0928295   -5.5356188 
O     0.1823533    0.3895514   -2.3895877 
H     0.7650161   -0.1223762   -1.7727123 
C     1.6460689    1.4835060   -5.5018237 
O     0.8248188    2.0542609   -6.1165250 
O     2.4757612    0.9022471   -4.9196394 
