63
Energy = -3161.896766768
C     0.9745582    0.9529090   -0.0623696 
C    -0.4078448    1.2269322   -0.0088025 
C    -0.9385188    1.7043090    1.1937532 
C    -0.1358824    1.9112995    2.3127696 
C     1.2272801    1.6494954    2.2277736 
C     1.8156822    1.1820650    1.0439411 
C    -1.3700560    1.0924663   -1.1800584 
C    -1.5103938    2.3203568   -2.0716877 
C    -2.7942678    2.8774605   -2.1737924 
C    -3.0638327    3.9969340   -2.9544370 
C    -2.0174620    4.6062185   -3.6423308 
C    -0.7176049    4.1024507   -3.5592269 
C    -0.4664005    2.9406716   -2.7927529 
C     0.4026104    4.8595365   -4.2405448 
C     1.3274631    5.5682369   -3.2503081 
C     0.7917013    6.7199009   -2.6582960 
C     1.4784445    7.4258499   -1.6770595 
C     2.7336676    6.9794498   -1.2711507 
C     3.3242077    5.8447727   -1.8391657 
C     2.6114468    5.1570498   -2.8432975 
C     4.6768488    5.4225865   -1.2842042 
C     4.6375540    4.4510768   -0.1109518 
C     5.2241731    4.8893736    1.0864034 
C     5.2585670    4.1039938    2.2333247 
C     4.6681682    2.8433932    2.2047551 
C     4.0548606    2.3662135    1.0442926 
C     4.0606651    3.1612256   -0.1264293 
C     3.3369509    1.0338887    1.0933847 
O     3.4993626    2.5801616   -1.2135138 
O     3.2223904    4.0512542   -3.3818738 
O     0.8117915    2.4952135   -2.8347869 
O     1.4614104    0.4815883   -1.2562594 
H     3.5600015    0.6046703    2.0799301 
H     4.6692245    2.2158178    3.0986644 
H     5.6738211    5.8848811    1.1052148 
H     5.0880357    6.3444713   -0.8491594 
H     3.2772605    7.5185263   -0.4922812 
H    -0.2033693    7.0487573   -2.9659112 
H    -0.0790090    5.6599446   -4.8190957 
H    -2.2027585    5.4948877   -4.2498099 
H    -3.6083603    2.3998114   -1.6233382 
H    -2.3572057    0.9971240   -0.7059059 
H    -2.0075225    1.9216871    1.2439839 
H     1.8686049    1.8316778    3.0929663 
H     2.6879291    3.7558339   -4.1813782 
H     3.4627881    3.1558894   -2.0253081 
H     2.4099810    0.1813290   -1.1120554 
H     0.9969344    1.7037791   -2.2613745 
H     5.7296095    4.4757004    3.1431411 
H    -0.5692268    2.2747182    3.2448248 
H    -4.0767583    4.3943651   -3.0190967 
H     1.0396906    8.3188541   -1.2313888 
S     4.0925718   -0.2458713   -0.0410212 
H     4.6325508    0.6384334   -0.9118134 
S     6.0204504    5.0688906   -2.5115541 
H     5.3575215    4.1585401   -3.2556445 
S     1.2297813    3.8737749   -5.5983919 
H     0.9158813    2.6558843   -5.0984519 
S    -1.3512409   -0.5141247   -2.1055047 
H    -0.0385530   -0.5349231   -2.4185783 
C     1.2278615    4.8244053    0.9143254 
O     1.6720081    5.2971511    1.8906389 
O     0.7718859    4.3619480   -0.0587067 
