63
Energy = -3161.911202760
C     1.0240759    1.1137298    0.0200716 
C    -0.3809519    1.1713846    0.0565151 
C    -1.0096867    1.3346616    1.2932756 
C    -0.2645834    1.4310590    2.4678688 
C     1.1246532    1.3558481    2.4139568 
C    -1.1688887    1.1598658   -1.2465597 
C    -1.4410231    2.5770354   -1.7377094 
C    -2.5314387    3.3183197   -1.2723358 
C    -2.7406511    4.6298750   -1.6896937 
C    -1.8526100    5.2219321   -2.5868539 
C    -0.7491359    4.5173263   -3.0729826 
C    -0.5480620    3.1975132   -2.6307544 
C     0.2821009    5.1682919   -3.9848566 
C     1.3398620    5.9160987   -3.1812286 
C     1.1314681    7.2244972   -2.7345329 
O     0.5667240    2.5301816   -3.1058731 
H     0.2095627    7.7303148   -3.0254882 
H     0.7661587    4.3836919   -4.5784720 
H    -2.0115963    6.2494808   -2.9181409 
H    -3.2324616    2.8355774   -0.5897623 
H    -0.5856941    0.6198484   -2.0017548 
H    -2.0988827    1.3915888    1.3287999 
H     0.8673650    1.8467214   -2.4340404 
H    -0.7681865    1.5624026    3.4258546 
H    -3.5993734    5.1910772   -1.3200521 
S    -0.6024825    6.2254003   -5.2116864 
H     0.5233774    6.7041034   -5.7918890 
S    -2.6932951    0.1503581   -0.9991656 
H    -3.1960175    0.3854868   -2.2342460 
C     0.9320230    4.7459922    1.0335653 
O     1.0765790    4.3558047   -0.0609753 
O     0.7813754    5.1440769    2.1236549 
H     1.7175803    1.4064208    3.3282842 
H     1.9077316    8.9048919   -1.6281941 
C     1.7930174    1.1876424    1.1968929 
C     2.0857353    7.8827977   -1.9637517 
C     3.2736543    7.2342094   -1.6283837 
C     3.5189261    5.9256962   -2.0508184 
C     2.5365041    5.2721335   -2.8161097 
C     4.7673691    5.1646963   -1.6250470 
C     4.5760704    4.5116526   -0.2611256 
C     4.7860345    5.2208006    0.9259056 
C     4.5576080    4.6324102    2.1666906 
C     4.1139975    3.3122834    2.2362738 
C     3.8884822    2.5700022    1.0744057 
C     4.1111244    3.1862774   -0.1707548 
C     3.3153430    1.1599512    1.1214520 
O     3.8471271    2.4419924   -1.3055802 
O     2.7893020    3.9657505   -3.1947140 
O     1.6252245    0.9919079   -1.2195168 
H     3.6244799    0.6275446    0.2142939 
H     3.9322348    2.8459355    3.2059198 
H     5.1558380    6.2450173    0.8582568 
H     4.9746102    4.3894760   -2.3721121 
H     4.0268750    7.7461087   -1.0270128 
H     1.9207832    3.4700359   -3.2978449 
H     3.5829407    3.0537639   -2.0590341 
H     2.5343100    1.4194454   -1.1960643 
H     4.7260153    5.2009269    3.0815649 
S     4.1104837    0.2475169    2.5140823 
H     3.3730179   -0.8771480    2.3573212 
S     6.2101103    6.3119382   -1.7041739 
H     7.1029515    5.4172174   -1.2185382 
