71
Energy = -1726.840362012
C     0.8225262    1.2013081    0.0379688 
C    -0.5854213    1.1777241   -0.0017781 
C    -1.2726786    1.3084194    1.2108846 
C    -0.5983411    1.4613994    2.4194374 
C     0.7933821    1.4636586    2.4248698 
C     1.5378682    1.3270402    1.2460429 
C    -1.4209868    1.0672521   -1.2818457 
C    -1.6771837    2.4296496   -1.9358471 
C    -2.9235976    3.0327641   -1.7183838 
C    -3.2436932    4.2750209   -2.2572714 
C    -2.2938513    4.9476974   -3.0208834 
C    -1.0277425    4.4026576   -3.2643318 
C    -0.7432254    3.1312852   -2.7262261 
C    -0.0179304    5.2408374   -4.0508837 
C     1.0103661    5.9277949   -3.1409366 
C     0.6948242    7.2127685   -2.6789091 
C     1.5597355    7.9307172   -1.8582407 
C     2.7763946    7.3619042   -1.4913539 
C     3.1413439    6.0760174   -1.9062015 
C     2.2367939    5.3708716   -2.7238899 
C     4.4714652    5.5159257   -1.3906622 
C     4.3043808    4.7252477   -0.0880885 
C     4.6193073    5.3755234    1.1123245 
C     4.4780963    4.7487284    2.3468215 
C     3.9973507    3.4428478    2.3928104 
C     3.6568419    2.7446415    1.2288220 
C     3.8313312    3.4001194   -0.0057106 
C     3.0672231    1.3403235    1.3771858 
O     3.5246703    2.6906827   -1.1458877 
O     2.5860095    4.0901312   -3.1026451 
O     0.4889125    2.5885633   -3.0084056 
O     1.4952691    1.1051274   -1.1636833 
H     3.2259319    1.1046581    2.4408003 
H     3.8714305    2.9436008    3.3563550 
H     4.9906353    6.4019056    1.0653544 
H     5.0180305    6.4171298   -1.0725746 
H     3.4657568    7.9191890   -0.8529505 
H    -0.2560748    7.6561176   -2.9831631 
H    -0.6177967    6.0841730   -4.4262500 
H    -2.5271738    5.9308802   -3.4357419 
H    -3.6584962    2.5011419   -1.1095824 
H    -2.4146054    0.7737251   -0.9098902 
H    -2.3649073    1.2970394    1.1957363 
H     1.3310378    1.5695169    3.3698856 
H     1.7377703    3.5494633   -3.2078193 
H     3.2800452    3.3098847   -1.9088154 
H     2.3640286    1.6205913   -1.0863340 
H     0.7722398    1.9232872   -2.2964231 
H     4.7398138    5.2742037    3.2658358 
H    -1.1538664    1.5636547    3.3522664 
H    -4.2225901    4.7195182   -2.0760201 
H     1.2931691    8.9321134   -1.5186501 
C     3.8204314    0.2310516    0.6182885 
H     3.8614526    0.3707700   -0.4659503 
H     4.8571029    0.1919048    0.9814278 
H     3.3492329   -0.7416161    0.8178554 
C     5.3863232    4.8587586   -2.4412680 
H     5.0148339    3.9091691   -2.8371382 
H     5.5181666    5.5421545   -3.2919977 
H     6.3724989    4.6727916   -1.9932062 
C     0.5407742    4.5679133   -5.3192579 
H    -0.2925450    4.3461997   -6.0008075 
H     1.2306115    5.2534152   -5.8311575 
H     1.0701540    3.6278059   -5.1379791 
C    -1.0233877   -0.0576927   -2.2561210 
H    -0.9606857   -1.0096253   -1.7102634 
H    -1.7980832   -0.1549382   -3.0296830 
H    -0.0648648    0.0961777   -2.7599263 
C    -0.2326288    4.9979442    0.1999651 
O    -1.2151311    5.5835695    0.4494405 
O     0.7552343    4.4160252   -0.0367694 
