71
Energy = -1726.739543670
C     0.9298613    0.9819530   -0.0008423 
C    -0.4604925    0.7972715   -0.0958623 
C    -1.1564734    0.4185691    1.0584050 
C    -0.4900931    0.2378198    2.2707284 
C     0.8865243    0.4515777    2.3464910 
C     1.6189521    0.8307963    1.2152483 
C    -1.1865064    1.0675515   -1.4003537 
C    -1.3628470    2.5551425   -1.6460105 
C    -2.1985346    3.3061477   -0.8122858 
C    -2.3097326    4.6869817   -0.9608678 
C    -1.5356352    5.3416348   -1.9179786 
C    -0.6880184    4.6261723   -2.7720797 
C    -0.6524921    3.2241463   -2.6594081 
C     0.2109683    5.3704591   -3.7426383 
C     1.2879975    6.1575199   -3.0197041 
C     1.1812910    7.5419414   -2.8398165 
C     2.1453388    8.2478656   -2.1203003 
C     3.2266428    7.5715229   -1.5557990 
C     3.3711988    6.1875988   -1.7120388 
C     2.3986634    5.4997763   -2.4602874 
C     4.5067394    5.4329437   -1.0466164 
C     4.0406217    4.6991121    0.1976381 
C     3.6246661    5.4242443    1.3205444 
C     3.1144742    4.7766633    2.4448711 
C     2.9631815    3.3916905    2.4325119 
C     3.3668050    2.6310561    1.3297904 
C     3.9549725    3.2953676    0.2380385 
C     3.1024566    1.1364457    1.3034066 
O     4.4385903    2.5531132   -0.8320724 
O     2.5002190    4.1311815   -2.5921712 
O     0.1186188    2.4889273   -3.5509690 
O     1.6286526    1.3900627   -1.1177569 
H     3.6336191    0.6953560    0.4513878 
H     3.4992828    0.6761026    2.2210953 
H     2.5005421    2.8857087    3.2828276 
H     3.6836204    6.5146855    1.2989600 
H     5.2931530    6.1542405   -0.7768616 
H     4.9431619    4.7084376   -1.7448330 
H     3.9758562    8.1222955   -0.9821687 
H     0.3275822    8.0693984   -3.2718968 
H     0.6648974    4.6490144   -4.4328970 
H    -0.3914927    6.0720052   -4.3394880 
H    -1.5685431    6.4307340   -1.9943372 
H    -2.7496553    2.7966223   -0.0187244 
H    -0.6345764    0.6303347   -2.2410849 
H    -2.1732561    0.5816461   -1.3575321 
H    -2.2363183    0.2616960    1.0003827 
H     1.4078062    0.3208483    3.2978890 
H    -1.0455762   -0.0656923    3.1594558 
H    -2.9735410    5.2581594   -0.3099513 
H     2.0485599    9.3267246   -1.9909632 
H     2.8048313    5.3555954    3.3164069 
C     3.2238398    3.7088440   -3.7444699 
H     3.2032514    2.6142141   -3.7402782 
H     2.7575124    4.0789521   -4.6739705 
H     4.2714841    4.0554438   -3.7145287 
C     5.8103409    2.1898618   -0.6669088 
H     6.0924398    1.6117838   -1.5565141 
H     6.4569173    3.0816226   -0.5881313 
H     5.9576214    1.5704917    0.2353159 
C     2.1449165    0.3181033   -1.9004243 
H     2.8313148   -0.3182263   -1.3149610 
H     1.3362576   -0.3170195   -2.3027921 
H     2.6947726    0.7740166   -2.7306243 
C    -0.6177763    2.0923224   -4.7091278 
H    -1.4782562    1.4543949   -4.4409539 
H    -0.9924782    2.9679744   -5.2679876 
H     0.0747500    1.5235494   -5.3432156 
C     0.5377568    5.3891463    0.5078218 
O     0.6632357    4.2400348    0.3393714 
O     0.4021854    6.5403480    0.6922770 
