71
Energy = -1726.856167178
C     0.9802026    1.1779239   -0.0085178 
C    -0.4222930    1.2822380    0.0026314 
C    -1.0468989    1.5824739    1.2158512 
C    -0.3057251    1.7719225    2.3809196 
C     1.0804365    1.6342877    2.3475059 
C     1.7513205    1.3176616    1.1611834 
C    -1.2272109    1.1520952   -1.2907838 
C    -1.5302942    2.5382041   -1.8572889 
C    -2.7073744    3.2200939   -1.5306237 
C    -2.9624183    4.4998826   -2.0177274 
C    -2.0273115    5.1251454   -2.8409377 
C    -0.8318980    4.4905814   -3.1879185 
C    -0.6038262    3.1948279   -2.6893221 
C     0.2417545    5.1886670   -4.0184999 
C     1.2548836    5.8745875   -3.0994889 
C     0.9704681    7.1168668   -2.5234925 
C     1.8778676    7.7473164   -1.6750268 
C     3.1027098    7.1412240   -1.4001086 
C     3.4300024    5.8958803   -1.9434099 
C     2.4810666    5.2672715   -2.7697113 
C     4.7465273    5.2011948   -1.5935038 
C     4.6270855    4.5038600   -0.2396478 
C     4.9947531    5.1437065    0.9495884 
C     4.8527434    4.5157810    2.1845814 
C     4.3245362    3.2275847    2.2483696 
C     3.9315370    2.5497115    1.0909683 
C     4.0967157    3.2023470   -0.1455218 
C     3.2749227    1.1729558    1.1422951 
O     3.7327856    2.5013510   -1.2779820 
O     2.7909407    4.0037152   -3.2473886 
O     0.5728897    2.5755391   -3.0665611 
O     1.5913666    0.9435017   -1.2299761 
H     3.5517916    0.6429353    0.2191637 
H     4.2099170    2.7429832    3.2183232 
H     5.4065278    6.1523962    0.9074931 
H     4.9219036    4.4252872   -2.3534887 
H     3.8102824    7.6378824   -0.7347567 
H     0.0145169    7.5968918   -2.7372386 
H     0.7743370    4.4117263   -4.5864972 
H    -2.2309557    6.1280751   -3.2175064 
H    -3.4438882    2.7364053   -0.8882422 
H    -0.5965003    0.6229977   -2.0204885 
H    -2.1316149    1.6939373    1.2455433 
H     1.6557345    1.7822283    3.2625036 
H     1.9313304    3.4903042   -3.3370847 
H     3.5148853    3.1224558   -2.0379694 
H     2.4880721    1.3950726   -1.2132790 
H     0.8392298    1.8696693   -2.4043474 
H     5.1480222    5.0324381    3.0983040 
H    -0.8080855    2.0234108    3.3157749 
H    -3.8907450    5.0098014   -1.7572664 
H     1.6332052    8.7133116   -1.2315897 
C     3.7831660    0.2969779    2.2947331 
H     3.3322736   -0.7024562    2.2299530 
H     4.8757946    0.1937942    2.2406820 
H     3.5337228    0.7050349    3.2827165 
C     5.9469324    6.1520743   -1.6828635 
H     6.8757492    5.6168798   -1.4419975 
H     6.0274229    6.5547981   -2.7016077 
H     5.8660434    7.0065129   -0.9985818 
C    -0.3293340    6.1525645   -5.0667701 
H     0.4848831    6.5626425   -5.6794434 
H    -1.0328018    5.6242640   -5.7251124 
H    -0.8627687    7.0016964   -4.6203461 
C    -2.4779435    0.2818211   -1.1124191 
H    -3.1732832    0.6824578   -0.3635221 
H    -3.0221422    0.1979833   -2.0631949 
H    -2.1869919   -0.7251487   -0.7839192 
C     1.1635560    4.9466253    0.9285298 
O     0.9471412    4.3964181   -0.0813480 
O     1.3680535    5.5035595    1.9382273 
