67
Energy = -1791.014833225
C     1.0395731    0.9795878    0.0144236 
C    -0.3622376    1.0153217    0.1007874 
C    -0.9506626    1.0756908    1.3666589 
C    -0.1658862    1.1013390    2.5187876 
C     1.2228710    1.0625983    2.4131562 
C     1.8488217    0.9906165    1.1639205 
C    -1.2231359    1.0550777   -1.1607038 
C    -1.4726752    2.4983501   -1.5997774 
C    -2.5587987    3.2132186   -1.0834579 
C    -2.7950770    4.5331441   -1.4619159 
C    -1.9365812    5.1610925   -2.3634095 
C    -0.8348309    4.4836559   -2.8924074 
C    -0.6114738    3.1542551   -2.4966999 
C     0.1432631    5.1954869   -3.8252046 
C     1.2473785    5.8838285   -3.0219347 
C     1.0572872    7.1830421   -2.5380139 
C     2.0427294    7.8219852   -1.7885219 
C     3.2383685    7.1616720   -1.5081401 
C     3.4611140    5.8596067   -1.9646322 
C     2.4531419    5.2291333   -2.7143929 
C     4.7412405    5.1135019   -1.5917129 
C     4.5656678    4.3821774   -0.2602875 
C     4.8242268    5.0454699    0.9445799 
C     4.6525412    4.4029898    2.1690365 
C     4.2113833    3.0809015    2.2027223 
C     3.9309020    2.3887447    1.0213894 
C     4.1058456    3.0541935   -0.2038094 
C     3.3747002    0.9665619    1.0684691 
O     3.8148696    2.3516363   -1.3609165 
O     2.6924530    3.9362076   -3.1474772 
O     0.4871513    2.5040747   -3.0339071 
O     1.6005654    0.9200279   -1.2508064 
H     3.6491369    0.4654862    0.1224326 
H     4.0719576    2.5592418    3.1501073 
H     5.1752608    6.0767011    0.8976161 
H     4.9305071    4.3563288   -2.3740576 
H     4.0223255    7.6441242   -0.9237152 
H     0.1195264    7.6862227   -2.7757052 
H     0.6159429    4.4292786   -4.4662507 
H    -2.1052371    6.1927389   -2.6740585 
H    -3.2242381    2.7024291   -0.3867474 
H    -0.6628603    0.5469999   -1.9665979 
H    -2.0391001    1.1032403    1.4277178 
H     1.8529268    1.0721911    3.3031823 
H     1.8178236    3.4437711   -3.2361284 
H     3.5252448    2.9929297   -2.0808584 
H     2.5124105    1.3449135   -1.2368383 
H     0.8116961    1.8002459   -2.3908833 
H     4.8579545    4.9353685    3.0986040 
H    -0.6378690    1.1533494    3.5009442 
H    -3.6490848    5.0745231   -1.0523840 
H     1.8774631    8.8343069   -1.4175732 
N     3.9274798    0.2612409    2.2353530 
H     4.9448791    0.2128041    2.1497420 
H     3.5735016   -0.6974953    2.2493463 
N     5.8536652    6.0698791   -1.4812852 
H     5.9909835    6.5332261   -2.3819605 
H     6.7139010    5.5638804   -1.2608037 
N    -0.5782226    6.1994642   -4.6227981 
H    -1.2947415    5.7332082   -5.1831688 
H     0.0732194    6.6499296   -5.2688848 
N    -2.5112349    0.3943702   -0.8975592 
H    -2.3435638   -0.5803608   -0.6395954 
H    -3.0720464    0.3948742   -1.7520664 
C     1.1628244    5.1460679    0.7928612 
O     1.2246485    6.0538175    1.5295014 
O     1.0896117    4.2352953    0.0611541 
