111
Energy = -3015.076299025
C    -2.4321025    0.2771687    1.9666933 
C    -3.7684918   -0.1234051    2.1206327 
H    -4.5136382    0.5869866    2.4759183 
C    -4.0770391   -1.4461664    1.8385139 
H    -5.0985877   -1.8060080    1.9698498 
C    -3.0654133   -2.3118532    1.4046057 
H    -3.2688044   -3.3588667    1.1817798 
C    -1.7794704   -1.7991357    1.2737679 
N    -1.4564941   -0.5244663    1.5549165 
H    -0.9548616   -2.4359736    0.9403595 
C    -4.6953250   -1.9480019    6.0493117 
N    -3.4458373   -1.8292844    5.5707247 
H    -5.2846353   -1.0285511    6.0312852 
C    -2.6615229   -2.9017596    5.6018536 
H    -1.7063445   -0.8703679    4.4951204 
C    -3.0716747   -4.1499460    6.1046979 
H    -2.3758363   -4.9886577    6.1042591 
C    -5.2082567   -3.1364447    6.5606302 
H    -6.2269408   -3.1785461    6.9451691 
C    -4.3698279   -4.2581904    6.5845546 
H    -4.7257938   -5.2096603    6.9837518 
O    -1.3911968   -2.8384630    5.1155329 
C    -0.8834419   -1.5655473    4.6707734 
H    -3.3206125   -2.1425853    8.3768448 
O    -2.1519203    1.5869199    2.2622689 
H    -6.1712943    0.7631457    7.8972132 
H    -7.3041970    1.7236028    9.9267562 
C    -6.4327515    1.0774202   10.0300341 
C    -5.8139158    0.5391903    8.9067529 
N    -4.7288180   -0.2525959    8.9686683 
C    -2.5336667   -1.7959074    9.0547557 
C    -4.2291717   -0.5258213   10.1694144 
H    -1.8809078   -2.6121710    9.3967050 
C    -5.8956499    0.7705860   11.2875847 
H    -0.3335258   -1.8034052    3.7532345 
O    -0.0461429   -0.9803781    5.6362518 
H    -0.4359038   -2.6649674    7.5334518 
O    -1.8103407   -0.8189489    8.3480909 
O    -3.1139241   -1.3035522   10.2747700 
C    -0.6149354   -0.4235448    8.9433497 
H     2.6644844   -0.3206607    2.8313379 
H     4.1894131   -1.5822104    4.0411304 
H     4.0321050    1.1674564    4.5106224 
H     0.9216546   -0.3939824    3.1135187 
C     1.8865912   -0.2130057    3.6021908 
C     2.1746813   -1.2181023    4.7037068 
C     3.4461915   -1.7963141    4.8128198 
C     3.7770224   -2.6195444    5.8881465 
H     4.7712277   -3.0642872    5.9505155 
C     1.2314196   -1.5202912    5.7034147 
C     2.8408464   -2.8540292    6.8941763 
H     3.1027135   -3.4799941    7.7503426 
C     1.5560103   -2.3033744    6.8233112 
H     0.8498577   -3.3543277    8.5481872 
C     0.5591706   -2.4766267    7.9503942 
C     1.9122002    1.2052215    4.1426231 
C     0.5258505   -1.2387205    8.8330763 
C     1.6866586   -0.8373260    9.5044771 
H     2.5838851   -1.4540318    9.4237197 
H    -0.7571111    3.0235259    2.4435010 
C    -0.8018237    1.9239667    2.4864219 
H    -6.4525010    3.5536575    2.3623135 
H    -8.0402492    1.8484721    3.3456824 
C    -7.0416262    1.9950136    3.7561985 
H    -7.2608266    0.4975901    5.2974639 
C    -6.6048135    1.2467225    4.8414998 
N    -5.3863736    1.3707507    5.4010267 
H    -2.9615235    0.4963225    6.1274248 
C    -6.1571046    2.9420201    3.2164671 
C    -4.5534997    2.2690018    4.8670033 
H    -0.4540938    5.0128521    4.7536683 
H    -4.1654436    3.7931247    3.3776427 
C    -4.8970758    3.0883283    3.7700644 
O    -3.3162633    2.4238249    5.3658988 
O    -0.4586827    1.4546776    3.7887140 
H    -0.1452772    1.4651330    1.7290762 
H    -1.3779362    3.4923655    4.6828719 
C    -2.8904051    1.5424729    6.4475964 
H    -3.5383099    1.7342390    7.3158021 
C    -0.5360070    3.9961641    5.1682832 
O    -1.5483141    1.8222289    6.6983069 
C    -1.2850110    3.0043419    7.3831130 
H    -2.6137112    1.2676856    9.1290643 
C    -1.7488489    1.7790378    9.5626272 
H    -2.0208574    2.0660106   10.5896317 
H    -4.3124670   -0.3060746   12.3227166 
C    -4.7746749   -0.0427567   11.3716832 
H    -6.3485296    1.1701579   12.1966085 
C    -0.8032951    4.1050506    6.6551619 
C    -1.4091969    3.0321740    8.7832164 
H     4.1065564    3.4585592    5.4789045 
H     1.9917471    4.7174504    5.8281728 
C    -1.1168511    4.2317519    9.4441447 
H    -1.2197213    4.2731661   10.5310055 
C    -0.5723181    0.8204249    9.5959265 
C     3.1565219    3.0327012    5.1510729 
C    -0.5171292    5.2824481    7.3573272 
C    -0.6881532    5.3555419    8.7391030 
H    -0.1576825    6.1532804    6.8041936 
C     1.9735646    3.7487785    5.3244595 
H    -0.4700797    6.2838803    9.2691909 
C     0.7403685    1.9729654    4.2630101 
C     0.7472674    3.2321483    4.8931022 
C     3.1173354    1.7584769    4.5894803 
C     1.7245463    0.3510230   10.2305489 
H     2.6334643    0.6398154   10.7614650 
C     0.6116244    1.1893160   10.2421637 
H     0.6603100    2.1563301   10.7470508 
C     3.5504560    1.9069420    8.1236307 
O     3.1034339    2.9141984    8.5206135 
O     4.0223695    0.9072419    7.7368175 
