111
Energy = -3015.131356979
H     6.3394561    0.8111233   -3.4152298 
H     6.7287939    2.0687335   -5.5449242 
C     6.7685442    2.5809587   -4.5840173 
C     6.5521873    1.8839546   -3.4013647 
H    -2.7243145    9.8869471   -5.4347862 
C    -1.8602145    9.8510821   -4.7691839 
H    -1.3279696   11.9498978   -5.0168110 
H    -2.0842013    7.7434673   -4.2796855 
C    -1.0889243   10.9998006   -4.5396691 
C    -1.5184264    8.6643199   -4.1409717 
C    -0.0024263   10.8936583   -3.6798627 
C    -0.3949058    8.6740281   -3.2921110 
H     0.6290044   11.7616951   -3.4686135 
O    -0.0804067    7.5022981   -2.6886603 
H     1.9784482    7.6478131   -2.3747250 
N     0.3505758    9.7524475   -3.0599129 
H     1.0872684    5.4092434   -1.9031991 
C     1.0502882    7.5087529   -1.7992498 
H     7.2653035    5.6303755   -3.1293355 
H     7.2050416    4.5447068   -5.3996402 
C     7.0680198    4.5660566   -3.2539120 
C     7.0316281    3.9554248   -4.4976330 
H    -3.7123059    1.4099854    1.1346505 
H     1.2219888    1.1656924    0.4831347 
O     0.2228000    1.2231215    0.5576029 
C    -0.0842607    1.4252227    1.8934364 
C     0.7389257    0.8886873    2.9014780 
C     1.9555679    0.0281031    2.5667219 
H     1.8537927   -0.3418352    1.5356627 
C     3.2352456    0.8531616    2.6456522 
C     1.9757867   -1.2222076    3.4420748 
C     4.0135207    0.9182297    3.8040054 
C     3.6177821    1.6392742    1.5439362 
O     3.0453838   -2.0520284    2.9564760 
H     2.1306339   -1.0074413    4.5079695 
H     1.0179461   -1.7587601    3.3594176 
C     3.3746306   -3.1331332    3.7049234 
N     2.6972466   -3.3881844    4.8221393 
H     3.7463353    0.3087264    4.6679618 
O     2.8545526    1.5294470    0.4006641 
H     2.4875295   -4.6533005    6.4460807 
C     3.0625899   -4.4706925    5.5335756 
H     2.9524369    2.3375395   -0.1868949 
C     0.4354764    1.2050531    4.2305784 
H     1.0806099    0.8370260    5.0296378 
C     4.4389231   -3.9253471    3.2335934 
C    -1.2189478    2.2036531    2.1904226 
C    -0.6644029    1.9987769    4.5483739 
H    -0.8798617    2.2406680    5.5897717 
C    -1.4858424    2.4877305    3.5342095 
C     4.0949829   -5.3239557    5.1632655 
H     4.9503480   -3.6520127    2.3110395 
H    -1.7883384    2.2393827    0.1427249 
H    -2.3387216    3.1163695    3.7808999 
N     6.5818748    2.4556773   -2.1840018 
H     4.3470730   -6.1885155    5.7768004 
C     4.7947694   -5.0355266    3.9825601 
H     5.6145251   -5.6760806    3.6529378 
H     7.0885008    2.6220860    0.1942382 
H    -7.9680897    1.2797203    1.0786109 
C    -7.4477070    1.8679111    1.8400782 
N    -6.1401909    2.0890416    1.6117490 
C    -3.5531014    2.4986434    1.1380712 
H    -9.1867754    2.1315564    3.0918474 
C    -8.1257219    2.3401813    2.9575995 
C    -7.4028390    3.0878664    3.8979317 
C    -5.4732185    2.8001343    2.5168827 
H    -7.8925833    3.4787169    4.7913693 
C    -6.0544739    3.3281062    3.6853640 
H    -4.0624106    2.9153619    0.2555842 
O    -4.1525714    3.0483060    2.3288311 
H    -5.4471629    3.9015869    4.3855158 
H     1.6997534    3.7527229   -1.0905073 
C     5.1258728    1.7539626    3.8769521 
H     5.7189142    1.7972028    4.7907792 
C    -2.0538228    2.7958510    1.0558723 
H    -3.1743253    5.0967643    2.1107788 
H    -2.4820663    7.4488919    1.7280035 
C    -2.3388289    5.3157650    1.4483034 
C    -1.9466469    6.6358639    1.2361794 
H     0.9707657    8.3599956   -1.1098763 
C     1.0663391    6.1548760   -1.0943542 
C     4.7330495    2.4984334    1.5927070 
H    -0.0003338    2.6901374   -0.2538816 
O     0.0867605    3.5768361   -0.7112806 
C     2.3391798    6.0072546   -0.2636092 
C     2.7573654    7.0309263    0.5937963 
H     2.1601793    7.9404121    0.6725995 
O     2.7034425    3.7490678   -1.0683967 
C     5.4709085    2.5429045    2.7818146 
H     4.7891203    2.8350844   -0.5155257 
C    -1.6798772    4.2552955    0.8140765 
H    -0.5678568    7.9529834    0.2428546 
C    -0.1718971    5.8908544   -0.2437261 
C    -0.8689189    6.9162577    0.3984550 
C    -0.5979689    4.5680336   -0.0324993 
C     5.0733708    3.3777031    0.3966693 
C     4.2897483    4.6853131    0.4439347 
C     4.6756755    5.7400419    1.2745465 
C     3.1072911    4.8283864   -0.3022474 
C     3.9139864    6.9040049    1.3607679 
H     4.2218879    7.7126907    2.0244238 
H     5.5780797    5.6432959    1.8804265 
H     6.3336664    3.2055971    2.8564085 
C     6.8358882    3.7608844   -2.1232546 
C     6.5840243    3.5967107    0.2499548 
O     6.8884752    4.3823096   -0.9168069 
H     7.0072887    4.1811371    1.0756762 
C     2.1032403    4.2635302    3.4336256 
O     2.6648077    4.3795976    4.4547679 
O     1.5348335    4.1579369    2.4161758 
